LAMMPS (23 Jun 2022 - Update 1)
OMP_NUM_THREADS environment is not set. Defaulting to 1 thread. (src/comm.cpp:98)
  using 1 OpenMP thread(s) per MPI task
Loaded 1 plugins from /software/deepmd-kit/2.1.5/gpu/lib/deepmd_lmp
Loaded 0 plugins from 
Reading data file ...
  orthogonal box = (0 0 0) to (26.38965 26.38965 25.40376)
  1 by 1 by 1 MPI processor grid
  reading atoms ...
  900 atoms
  read_data CPU = 0.019 seconds
Summary of lammps deepmd module ...
  >>> Info of deepmd-kit:
  installed to:       /software/deepmd-kit/2.1.5/gpu
  source:             v2.1.5
  source branch:       HEAD
  source commit:      6e3d4a62
  source commit at:   2022-09-23 16:10:28 +0800
  surpport model ver.:1.1 
  build float prec:   double
  build variant:      cuda
  build with tf inc:  /software/deepmd-kit/2.1.5/gpu/include;/software/deepmd-kit/2.1.5/gpu/include
  build with tf lib:  /software/deepmd-kit/2.1.5/gpu/lib/libtensorflow_cc.so;/software/deepmd-kit/2.1.5/gpu/lib/libtensorflow_framework.so
  set tf intra_op_parallelism_threads: 0
  set tf inter_op_parallelism_threads: 0
  >>> Info of lammps module:
  use deepmd-kit at:  /software/deepmd-kit/2.1.5/gpuDeePMD-kit WARNING: Environmental variable TF_INTRA_OP_PARALLELISM_THREADS is not set. Tune TF_INTRA_OP_PARALLELISM_THREADS for the best performance.
DeePMD-kit WARNING: Environmental variable TF_INTER_OP_PARALLELISM_THREADS is not set. Tune TF_INTER_OP_PARALLELISM_THREADS for the best performance.
DeePMD-kit WARNING: Environmental variable OMP_NUM_THREADS is not set. Tune OMP_NUM_THREADS for the best performance.
2023-03-03 23:16:07.959167: I tensorflow/core/platform/cpu_feature_guard.cc:193] This TensorFlow binary is optimized with oneAPI Deep Neural Network Library (oneDNN) to use the following CPU instructions in performance-critical operations:  SSE4.1 SSE4.2 AVX
To enable them in other operations, rebuild TensorFlow with the appropriate compiler flags.
2023-03-03 23:16:08.553729: I tensorflow/core/common_runtime/gpu/gpu_device.cc:1532] Created device /job:localhost/replica:0/task:0/device:GPU:0 with 10059 MB memory:  -> device: 0, name: GeForce GTX 1080 Ti, pci bus id: 0000:04:00.0, compute capability: 6.1
2023-03-03 23:16:08.554046: I tensorflow/core/common_runtime/process_util.cc:146] Creating new thread pool with default inter op setting: 2. Tune using inter_op_parallelism_threads for best performance.
2023-03-03 23:16:08.599381: I tensorflow/compiler/mlir/mlir_graph_optimization_pass.cc:354] MLIR V1 optimization pass is not enabled
  >>> Info of model(s):
  using   1 model(s): model.pb 
  rcut in model:      6
  ntypes in model:    4

CITE-CITE-CITE-CITE-CITE-CITE-CITE-CITE-CITE-CITE-CITE-CITE-CITE

Your simulation uses code contributions which should be cited:
- USER-DEEPMD package:
The log file lists these citations in BibTeX format.

CITE-CITE-CITE-CITE-CITE-CITE-CITE-CITE-CITE-CITE-CITE-CITE-CITE

Generated 0 of 6 mixed pair_coeff terms from geometric mixing rule
Neighbor list info ...
  update every 10 steps, delay 0 steps, check no
  max neighbors/atom: 2000, page size: 100000
  master list distance cutoff = 7
  ghost atom cutoff = 7
  binsize = 3.5, bins = 8 8 8
  1 neighbor lists, perpetual/occasional/extra = 1 0 0
  (1) pair deepmd, perpetual
      attributes: full, newton on
      pair build: full/bin/atomonly
      stencil: full/bin/3d
      bin: standard
Setting up Verlet run ...
  Unit style    : metal
  Current step  : 0
  Time step     : 0.002
Per MPI rank memory allocation (min/avg/max) = 2.644 | 2.644 | 2.644 Mbytes
   Step          Temp          E_pair         E_mol          TotEng         Press     
         0   666           -3890.2809      0             -3812.8885      9188.3784    
      2000   685.35362     -3812.901       0             -3733.2596      14225.856    
Loop time of 116.815 on 1 procs for 2000 steps with 900 atoms

Performance: 2.959 ns/day, 8.112 hours/ns, 17.121 timesteps/s
57.7% CPU use with 1 MPI tasks x 1 OpenMP threads

MPI task timing breakdown:
Section |  min time  |  avg time  |  max time  |%varavg| %total
---------------------------------------------------------------
Pair    | 115.79     | 115.79     | 115.79     |   0.0 | 99.12
Neigh   | 0.9226     | 0.9226     | 0.9226     |   0.0 |  0.79
Comm    | 0.04048    | 0.04048    | 0.04048    |   0.0 |  0.03
Output  | 0.00034627 | 0.00034627 | 0.00034627 |   0.0 |  0.00
Modify  | 0.045969   | 0.045969   | 0.045969   |   0.0 |  0.04
Other   |            | 0.01474    |            |       |  0.01

Nlocal:            900 ave         900 max         900 min
Histogram: 1 0 0 0 0 0 0 0 0 0
Nghost:           2411 ave        2411 max        2411 min
Histogram: 1 0 0 0 0 0 0 0 0 0
Neighs:              0 ave           0 max           0 min
Histogram: 1 0 0 0 0 0 0 0 0 0
FullNghs:        64644 ave       64644 max       64644 min
Histogram: 1 0 0 0 0 0 0 0 0 0

Total # of neighbors = 64644
Ave neighs/atom = 71.826667
Neighbor list builds = 200
Dangerous builds not checked
Generated 0 of 6 mixed pair_coeff terms from geometric mixing rule
Setting up Verlet run ...
  Unit style    : metal
  Current step  : 0
  Time step     : 0.002
Per MPI rank memory allocation (min/avg/max) = 3.929 | 3.929 | 3.929 Mbytes
   Step          Time           Temp          KinEng         TotEng         Press     
         0   0              685.35362      79.641429     -3733.2596      14225.856    
       100   0.2            703.03391      81.695964     -3736.0775      14447.894    
       200   0.4            653.79382      75.974026     -3739.927       12458.133    
       300   0.6            674.69293      78.402604     -3739.7742      15109.442    
       400   0.8            651.04506      75.654607     -3738.4351      13993.864    
       500   1              666.36568      77.434937     -3735.7218      13066.308    
       600   1.2            697.30941      81.030749     -3731.7628      14351.508    
       700   1.4            670.17364      77.877441     -3734.3306      13364.466    
       800   1.6            669.59786      77.810533     -3739.4819      12884.625    
       900   1.8            657.24927      76.375566     -3740.1956      11986.771    
      1000   2              663.54038      77.106624     -3739.3777      13405.983    
      1100   2.2            674.45623      78.375099     -3736.5668      12887.619    
      1200   2.4            704.12012      81.822188     -3733.2541      12915.693    
      1300   2.6            683.04323      79.37295      -3736.0057      13605.623    
      1400   2.8            655.82647      76.21023      -3740.8795      12480.166    
      1500   3              666.56211      77.457764     -3740.8114      11278.994    
      1600   3.2            707.39815      82.20311      -3738.678       14383.108    
      1700   3.4            684.32873      79.522332     -3734.9749      13215.77     
      1800   3.6            673.37268      78.249185     -3732.4436      14299.075    
      1900   3.8            655.07362      76.122745     -3737.1303      13754.83     
      2000   4              663.40698      77.091122     -3741.4744      13745.691    
      2100   4.2            646.43522      75.118921     -3741.4376      12685.459    
      2200   4.4            645.68819      75.032112     -3737.735       15069.903    
      2300   4.6            684.92115      79.591173     -3735.9784      14307.714    
      2400   4.8            669.20667      77.765074     -3737.9074      13682.697    
      2500   5              636.26772      73.937407     -3743.5497      13911.008    
      2600   5.2            654.12868      76.012939     -3742.9353      12584.795    
      2700   5.4            652.5566       75.830255     -3739.5232      13715.967    
      2800   5.6            663.14058      77.060166     -3737.6246      13509.278    
      2900   5.8            673.3049       78.241309     -3736.4952      15893.859    
      3000   6              637.70259      74.104147     -3737.2773      12193.518    
      3100   6.2            643.04816      74.725328     -3741.671       14496.037    
      3200   6.4            641.17251      74.507368     -3744.0167      13338.571    
      3300   6.6            635.98896      73.905015     -3741.4678      15043.086    
      3400   6.8            665.95755      77.387511     -3737.1847      14960.002    
      3500   7              671.68591      78.053174     -3736.7299      11927.793    
      3600   7.2            671.36904      78.016352     -3737.9511      15604.987    
      3700   7.4            654.55536      76.062521     -3741.5598      13854.617    
      3800   7.6            655.35166      76.155055     -3744.7756      9647.5764    
      3900   7.8            680.33651      79.058415     -3741.0946      12505.38     
      4000   8              678.58829      78.855264     -3736.2491      15424.642    
      4100   8.2            666.86594      77.49307      -3736.3114      14153.733    
      4200   8.4            638.31483      74.175292     -3738.8592      14011.565    
      4300   8.6            662.02603      76.930649     -3741.8084      14233.217    
      4400   8.8            643.51153      74.779174     -3742.7434      14058.002    
      4500   9              641.39081      74.532736     -3740.1446      14834.94     
      4600   9.2            683.96329      79.479865     -3735.343       13206.943    
      4700   9.4            677.73767      78.756418     -3736.3593      15617.791    
      4800   9.6            652.97408      75.878768     -3739.8176      12789.918    
      4900   9.8            649.46661      75.471183     -3741.9567      13422.665    
      5000   10             674.35255      78.363051     -3740.3813      13554.547    
      5100   10.2           700.52821      81.40479      -3733.953       13808.407    
      5200   10.4           688.03995      79.953594     -3733.0144      13889.027    
      5300   10.6           684.45202      79.536658     -3736.3905      12206.533    
      5400   10.8           665.67389      77.354548     -3739.5422      13950.658    
      5500   11             641.1274       74.502127     -3739.9153      12605.07     
      5600   11.2           670.87031      77.958397     -3737.2243      14295.316    
      5700   11.4           703.3625       81.734149     -3732.3992      14781.841    
      5800   11.6           670.60722      77.927825     -3732.787       15396.157    
      5900   11.8           660.31153      76.731416     -3736.4806      13504.496    
      6000   12             655.44813      76.166265     -3737.6531      13602.022    
      6100   12.2           655.83541      76.211268     -3737.7853      16090.077    
      6200   12.4           661.98131      76.925452     -3737.6616      15834.538    
      6300   12.6           655.70868      76.196542     -3738.9903      12631.14     
      6400   12.8           659.37112      76.622135     -3740.8853      11398.41     
      6500   13             635.99835      73.906106     -3741.8079      13344.519    
      6600   13.2           661.08784      76.821627     -3740.1469      13324.61     
      6700   13.4           674.48192      78.378084     -3735.5001      12001.674    
      6800   13.6           647.93216      75.292872     -3735.2688      13934.824    
      6900   13.8           669.05819      77.74782      -3737.2537      13279.99     
      7000   14             631.29685      73.359769     -3742.566       12018.212    
      7100   14.2           664.38202      77.204427     -3742.5442      12186.423    
      7200   14.4           651.4079       75.696771     -3740.6916      13817.99     
      7300   14.6           697.1957       81.017536     -3737.3856      15949.959    
      7400   14.8           690.49478      80.238856     -3736.1416      14383.123    
      7500   15             664.05595      77.166535     -3738.2678      15318.667    
      7600   15.2           627.22426      72.886514     -3744.8248      14208.436    
      7700   15.4           653.40632      75.928997     -3743.6818      13313.772    
      7800   15.6           674.40733      78.369416     -3740.156       13090.178    
      7900   15.8           671.3925       78.019079     -3737.9185      11747.989    
      8000   16             656.05886      76.237235     -3736.7114      13629.248    
      8100   16.2           667.2914       77.54251      -3737.2194      13003.187    
      8200   16.4           656.6339       76.304057     -3741.291       11549.535    
      8300   16.6           636.46065      73.959827     -3742.663       10503.434    
      8400   16.8           642.79746      74.696196     -3740.5801      13387.487    
      8500   17             677.19559      78.693426     -3736.0528      14921.663    
      8600   17.2           646.13686      75.08425      -3736.0719      14379.963    
      8700   17.4           673.83289      78.302664     -3738.6911      15091.129    
      8800   17.6           681.33854      79.174856     -3740.0279      12515.338    
      8900   17.8           656.4874       76.287033     -3739.9812      13410.501    
      9000   18             682.59395      79.320741     -3738.7488      13401.364    
      9100   18.2           700.26669      81.3744       -3733.9705      13231.086    
      9200   18.4           691.61657      80.369214     -3731.546       14421.723    
      9300   18.6           659.22307      76.604931     -3735.7301      16660.002    
      9400   18.8           649.37107      75.460082     -3738.7527      13796.061    
      9500   19             665.75336      77.363783     -3738.9805      15936.877    
      9600   19.2           666.47316      77.447428     -3738.4513      14801.612    
      9700   19.4           657.9818       76.46069      -3736.7033      15474.214    
      9800   19.6           697.6903       81.075011     -3734.3131      14709.863    
      9900   19.8           678.91519      78.893251     -3733.5231      13577.479    
     10000   20             691.75736      80.385574     -3737.2172      15196.161    
     10100   20.2           688.44719      80.000917     -3740.0209      13633.999    
     10200   20.4           674.27742      78.35432      -3740.284       14674.676    
     10300   20.6           669.14405      77.757797     -3740.0321      12102.807    
     10400   20.8           673.49219      78.263073     -3735.5928      13924.533    
     10500   21             683.81382      79.462497     -3732.8591      15334.685    
     10600   21.2           669.44027      77.79222      -3736.3388      15696.271    
     10700   21.4           654.51809      76.058189     -3738.8503      12549.525    
     10800   21.6           662.41702      76.976084     -3738.8732      13746.727    
     10900   21.8           665.19212      77.298564     -3737.8009      13830.338    
     11000   22             660.70739      76.777417     -3734.6412      11435.874    
     11100   22.2           689.38102      80.109432     -3729.3947      16184.122    
     11200   22.4           683.47185      79.422758     -3731.6818      16688.001    
     11300   22.6           670.48763      77.913928     -3734.9127      12920.342    
     11400   22.8           688.50104      80.007174     -3737.4961      15489.035    
     11500   23             665.1422       77.292763     -3740.6778      13057.914    
     11600   23.2           664.65336      77.235957     -3740.9461      11704.003    
     11700   23.4           657.34695      76.386917     -3736.8216      14997.313    
     11800   23.6           676.33698      78.593651     -3732.8248      13273.087    
     11900   23.8           692.52499      80.474776     -3735.0821      13982.912    
     12000   24             670.84319      77.955246     -3739.1054      15845.975    
     12100   24.2           664.23615      77.187475     -3740.5371      11917.062    
     12200   24.4           652.35165      75.806439     -3740.0327      11884.523    
     12300   24.6           672.03504      78.093745     -3736.7534      13805.896    
     12400   24.8           678.61237      78.858063     -3732.1606      12813.884    
     12500   25             684.1264       79.49882      -3734.0372      14509.968    
     12600   25.2           659.66493      76.656278     -3737.3412      12406.333    
     12700   25.4           657.18682      76.368309     -3738.8381      12626.006    
     12800   25.6           661.32084      76.848703     -3738.8103      13435.107    
     12900   25.8           665.95537      77.387258     -3738.0677      12137.027    
     13000   26             714.85987      83.070198     -3735.161       13958.444    
     13100   26.2           677.51703      78.730779     -3734.1294      13283.9      
     13200   26.4           646.37489      75.11191      -3737.573       14954.947    
     13300   26.6           652.75294      75.853071     -3741.5601      12827.344    
     13400   26.8           640.90683      74.476495     -3741.9487      12346.047    
     13500   27             670.02258      77.859887     -3740.5275      13675.14     
     13600   27.2           653.55241      75.945974     -3739.7082      12404.586    
     13700   27.4           667.88319      77.61128      -3739.067       14485.886    
     13800   27.6           657.71233      76.429376     -3738.9803      11654.759    
     13900   27.8           677.49347      78.728041     -3738.3003      14257.508    
     14000   28             676.6433       78.629247     -3734.7786      13384.585    
     14100   28.2           704.23696      81.835764     -3732.2604      13224.985    
     14200   28.4           648.65623      75.377013     -3736.8492      13385.843    
     14300   28.6           648.16962      75.320467     -3740.0826      14296.331    
     14400   28.8           670.05025      77.863102     -3740.7501      14093.052    
     14500   29             665.81989      77.371514     -3740.3652      13768.621    
     14600   29.2           698.10475      81.123172     -3737.276       13645.099    
     14700   29.4           697.62813      81.067786     -3733.8131      13819.734    
     14800   29.6           688.98502      80.063415     -3733.5612      14298.77     
     14900   29.8           673.13127      78.221132     -3739.6481      13391.819    
     15000   30             637.67039      74.100405     -3741.0705      15256.724    
     15100   30.2           658.71835      76.546281     -3739.6064      13026.085    
     15200   30.4           684.10232      79.496022     -3736.1981      13249.715    
     15300   30.6           691.52012      80.358005     -3734.9887      12597.449    
     15400   30.8           665.3534       77.317306     -3738.8781      13710.889    
     15500   31             670.42746      77.906936     -3742.9323      13984.029    
     15600   31.2           658.61368      76.534117     -3742.7981      13409.373    
     15700   31.4           678.87048      78.888056     -3738.7872      12893.117    
     15800   31.6           687.54286      79.895829     -3736.3594      14545.911    
     15900   31.8           676.19432      78.577074     -3737.2197      14027.432    
     16000   32             673.46355      78.259744     -3738.3984      12871.119    
     16100   32.2           654.83205      76.094673     -3739.7005      16356.982    
     16200   32.4           678.71584      78.870086     -3739.8052      14532.626    
     16300   32.6           675.01062      78.439521     -3739.3478      13105.661    
     16400   32.8           673.50558      78.264628     -3738.7562      15367.948    
     16500   33             663.21078      77.068323     -3739.1904      13661.285    
     16600   33.2           681.30569      79.17104      -3740.4981      13983.85     
     16700   33.4           653.25302      75.911182     -3743.2408      13581.742    
     16800   33.6           652.171        75.785446     -3743.0713      14198.508    
     16900   33.8           667.60748      77.57924      -3738.3615      11840.319    
     17000   34             650.99542      75.648838     -3736.1598      16393.622    
     17100   34.2           662.17         76.947379     -3736.5225      13200.813    
     17200   34.4           637.41478      74.070702     -3738.2473      13700.379    
     17300   34.6           647.57703      75.251605     -3743.5936      13144.38     
     17400   34.8           629.18197      73.114009     -3745.3015      10135.467    
     17500   35             655.87831      76.216254     -3741.57        12816.22     
     17600   35.2           666.2589       77.422529     -3738.7151      13948.384    
     17700   35.4           683.17649      79.388435     -3736.8735      11530.937    
     17800   35.6           671.02884      77.976819     -3736.8944      14148.445    
     17900   35.8           666.0553       77.39887      -3740.9001      12579.126    
     18000   36             642.77968      74.69413      -3744.7006      13734.23     
     18100   36.2           650.68574      75.612852     -3743.0003      14257.84     
     18200   36.4           649.03264      75.420753     -3740.1323      13819.226    
     18300   36.6           678.71146      78.869577     -3738.994       15806.386    
     18400   36.8           669.0619       77.748252     -3739.1243      12749.098    
     18500   37             665.9211       77.383275     -3739.7763      14070.933    
     18600   37.2           631.6294       73.398413     -3743.3467      14235.103    
     18700   37.4           653.99579      75.997496     -3744.6882      12238.266    
     18800   37.6           641.94805      74.59749      -3741.3469      13810.739    
     18900   37.8           666.3839       77.437055     -3737.1299      13179.623    
     19000   38             680.94498      79.129124     -3736.3495      15231.261    
     19100   38.2           653.2241       75.907822     -3737.8188      12605.123    
     19200   38.4           656.29345      76.264496     -3741.7504      12160.807    
     19300   38.6           666.63234      77.465925     -3744.9891      13873.467    
     19400   38.8           627.4816       72.916418     -3741.9375      11410.121    
     19500   39             662.74075      77.013703     -3736.5408      16060.155    
     19600   39.2           688.59473      80.018062     -3737.5737      13553.714    
     19700   39.4           654.01005      75.999153     -3740.2001      12216.499    
     19800   39.6           649.49586      75.474582     -3741.696       13990.178    
     19900   39.8           679.04193      78.907979     -3740.3877      13150.102    
     20000   40             686.64087      79.791013     -3735.1864      14289.014    
     20100   40.2           688.42208      79.997999     -3734.4071      15153.678    
     20200   40.4           684.64472      79.559051     -3736.8098      13998.151    
     20300   40.6           641.30799      74.523111     -3739.6692      14813.682    
     20400   40.8           649.12821      75.431859     -3739.6801      13420.519    
     20500   41             660.87404      76.796782     -3738.9873      15834.38     
     20600   41.2           677.1891       78.692672     -3738.3943      14503.24     
     20700   41.4           683.67602      79.446483     -3737.3461      14194.591    
     20800   41.6           672.20046      78.112967     -3735.6276      14696.974    
     20900   41.8           691.51732      80.357681     -3735.4367      15039.109    
     21000   42             661.20938      76.83575      -3739.2189      13767.724    
     21100   42.2           648.4559       75.353734     -3741.9765      10922.809    
     21200   42.4           652.89818      75.869949     -3742.0019      13498.823    
     21300   42.6           671.73589      78.058982     -3735.2241      13105.876    
     21400   42.8           694.25061      80.675303     -3734.4148      15245.543    
     21500   43             668.5606       77.689998     -3737.9605      9910.6181    
     21600   43.2           664.51352      77.219707     -3740.5747      13202.732    
     21700   43.4           654.24233      76.026145     -3740.8564      13249.816    
     21800   43.6           676.35021      78.595188     -3737.2379      13408.715    
     21900   43.8           677.1542       78.688616     -3733.2279      14620.128    
     22000   44             675.65806      78.514757     -3734.2511      12355.258    
     22100   44.2           645.62595      75.024879     -3737.4709      14101.551    
     22200   44.4           660.31189      76.731458     -3738.8737      13449.606    
     22300   44.6           660.97144      76.8081       -3738.2326      12669.786    
     22400   44.8           654.45082      76.050373     -3737.0744      15803.38     
     22500   45             690.97069      80.29416      -3736.3551      12236.195    
     22600   45.2           663.52645      77.105005     -3739.1006      12569.587    
     22700   45.4           630.69686      73.290047     -3743.5699      15321.997    
     22800   45.6           650.63988      75.607523     -3742.5222      12226.027    
     22900   45.8           635.58268      73.857803     -3738.7481      13677.448    
     23000   46             671.32227      78.010917     -3736.6012      11975.554    
     23100   46.2           647.61869      75.256446     -3737.142       16104.75     
     23200   46.4           677.09411      78.681633     -3738.7083      12392.749    
     23300   46.6           650.52263      75.593898     -3742.1463      14494.616    
     23400   46.8           630.20931      73.233391     -3746.2895      14453.749    
     23500   47             641.53924      74.549984     -3745.2005      12681.477    
     23600   47.2           675.51424      78.498044     -3738.451       13311.254    
     23700   47.4           664.81999      77.255321     -3738.0593      16293.389    
     23800   47.6           672.34939      78.130274     -3738.9473      14183.902    
     23900   47.8           648.60163      75.370669     -3740.9194      12502.9      
     24000   48             659.15547      76.597076     -3743.213       13304.895    
     24100   48.2           681.12764      79.150349     -3743.2428      12059.589    
     24200   48.4           671.53126      78.035202     -3737.7421      15042.993    
     24300   48.6           672.11873      78.10347      -3736.592       14415.42     
     24400   48.8           659.06177      76.586188     -3737.8129      14267.534    
     24500   49             653.52873      75.943222     -3741.612       13121.419    
     24600   49.2           669.31698      77.777892     -3745.1019      12343.991    
     24700   49.4           661.03316      76.815273     -3743.0609      10883.944    
     24800   49.6           698.00354      81.11141      -3736.3853      15401.756    
     24900   49.8           665.0606       77.283281     -3737.5612      14267.575    
     25000   50             635.70373      73.87187      -3740.6312      13060.629    
     25100   50.2           657.85122      76.445516     -3742.881       13265.327    
     25200   50.4           662.60468      76.997891     -3742.0014      14467.612    
     25300   50.6           675.1719       78.458263     -3736.9993      12765.917    
     25400   50.8           654.22237      76.023826     -3734.9359      13507.362    
     25500   51             666.72077      77.476201     -3736.6089      15883.087    
     25600   51.2           648.52366      75.361608     -3738.5764      12380.423    
     25700   51.4           626.3898       72.789545     -3738.9275      15163.606    
     25800   51.6           673.36         78.247712     -3736.8587      14500.861    
     25900   51.8           702.35518      81.617092     -3732.6691      13626.111    
     26000   52             685.82969      79.69675      -3732.6166      12050.661    
     26100   52.2           676.21045      78.578947     -3737.3677      11242.201    
     26200   52.4           642.83371      74.700408     -3739.7567      13779.464    
     26300   52.6           672.00605      78.090376     -3739.5261      12290.507    
     26400   52.8           682.00135      79.251878     -3736.6537      11241.579    
     26500   53             681.81131      79.229795     -3731.8264      13504.99     
     26600   53.2           694.36214      80.688262     -3730.6098      14291.19     
     26700   53.4           671.89215      78.07714      -3737.2419      14868.544    
     26800   53.6           659.67243      76.657149     -3739.0793      14154.315    
     26900   53.8           662.87094      77.028831     -3740.0167      11395.711    
     27000   54             665.72198      77.360136     -3740.0581      13139.819    
     27100   54.2           664.77741      77.250372     -3738.1968      14852.576    
     27200   54.4           684.72569      79.56846      -3734.7702      14319.986    
     27300   54.6           688.43909      79.999976     -3732.7429      13338.625    
     27400   54.8           672.33973      78.129152     -3737.8832      13848.152    
     27500   55             630.16855      73.228654     -3741.3888      15729.789    
     27600   55.2           648.17538      75.321136     -3740.5848      15217.224    
     27700   55.4           645.10686      74.964558     -3737.8484      15241.023    
     27800   55.6           702.81665      81.670717     -3734.0718      15255.563    
     27900   55.8           675.20021      78.461553     -3735.0774      14810.439    
     28000   56             673.94671      78.31589      -3737.5353      14206.661    
     28100   56.2           682.47912      79.307398     -3738.3814      14336.869    
     28200   56.4           657.26215      76.377062     -3738.4462      12212.603    
     28300   56.6           672.47986      78.145435     -3737.902       15117.306    
     28400   56.8           671.66922      78.051234     -3738.3817      15116.344    
     28500   57             654.16979      76.017716     -3739.1285      13561.804    
     28600   57.2           670.17779      77.877924     -3740.9205      11725.145    
     28700   57.4           668.91263      77.730906     -3741.8113      14571.461    
     28800   57.6           660.4755       76.75047      -3738.9529      12631.6      
     28900   57.8           678.80071      78.879948     -3734.8118      12945.196    
     29000   58             668.11039      77.637681     -3735.686       14081.705    
     29100   58.2           670.98922      77.972216     -3738.6111      14494.94     
     29200   58.4           656.48875      76.28719      -3741.2711      11415.472    
     29300   58.6           648.81731      75.395731     -3740.5906      16987.801    
     29400   58.8           661.89298      76.915187     -3738.5749      13481.622    
     29500   59             671.56639      78.039286     -3736.3442      10297.471    
     29600   59.2           678.8921       78.890569     -3735.6118      14888.02     
     29700   59.4           669.29805      77.775693     -3739.5504      13746.336    
     29800   59.6           652.52939      75.827093     -3743.532       15123.989    
     29900   59.8           650.06334      75.540527     -3741.8648      14375.389    
     30000   60             678.53774      78.84939      -3738.1716      13569.49     
     30100   60.2           681.4166       79.183927     -3736.4512      13434.764    
     30200   60.4           676.51109      78.613883     -3736.7543      14862.719    
     30300   60.6           665.2409       77.304232     -3738.0154      11644.325    
     30400   60.8           658.24713      76.491522     -3738.458       14762.813    
     30500   61             662.91007      77.033379     -3738.4101      12047.001    
     30600   61.2           660.89966      76.799759     -3737.0528      14149.288    
     30700   61.4           674.74492      78.408646     -3734.4067      13176.36     
     30800   61.6           691.42854      80.347364     -3732.4992      14177.681    
     30900   61.8           686.38347      79.761102     -3736.3793      15198.616    
     31000   62             652.44656      75.817468     -3740.3343      12568.409    
     31100   62.2           655.5105       76.173513     -3740.9308      12851.575    
     31200   62.4           660.58854      76.763606     -3738.2617      14061.626    
     31300   62.6           663.7075       77.126044     -3734.1025      13628.977    
     31400   62.8           721.63156      83.857101     -3734.2286      11586.776    
     31500   63             672.02617      78.092714     -3736.2305      14786.866    
     31600   63.2           682.91338      79.357861     -3737.7763      11235.315    
     31700   63.4           666.3417       77.432151     -3739.6814      13295.775    
     31800   63.6           651.27323      75.681121     -3740.8574      12134.922    
     31900   63.8           688.80426      80.04241      -3739.6151      12623.483    
     32000   64             681.3065       79.171133     -3736.7035      15562.523    
     32100   64.2           656.65813      76.306873     -3735.473       12744.206    
     32200   64.4           675.08746      78.448451     -3737.0555      13364.37     
     32300   64.6           660.2166       76.720384     -3741.9617      15798.315    
     32400   64.8           659.52633      76.640172     -3742.5233      12442.612    
     32500   65             661.47555      76.86668      -3740.3871      16054.822    
     32600   65.2           683.24042      79.395864     -3738.4509      12387.833    
     32700   65.4           658.01535      76.464589     -3736.8884      13560.431    
     32800   65.6           679.80832      78.997037     -3733.4354      13549.583    
     32900   65.8           690.93348      80.289835     -3732.0539      13247.954    
     33000   66             682.68132      79.330895     -3736.5         13544.367    
     33100   66.2           658.31371      76.499259     -3740.2751      12095.582    
     33200   66.4           650.75936      75.621407     -3740.921       12434.581    
     33300   66.6           664.64015      77.234422     -3739.2327      12749.315    
     33400   66.8           705.23983      81.952303     -3734.2358      13206.606    
     33500   67             675.66553      78.515625     -3734.3086      14589.846    
     33600   67.2           687.01466      79.83445      -3736.9742      12128.148    
     33700   67.4           661.55679      76.876121     -3738.3779      14343.344    
     33800   67.6           682.64036      79.326134     -3738.5469      13199.957    
     33900   67.8           685.72833      79.684972     -3737.9969      12946.163    
     34000   68             678.73569      78.872393     -3737.2352      12789.707    
     34100   68.2           677.3528       78.711695     -3736.0864      15511.631    
     34200   68.4           647.53415      75.246622     -3737.2385      12448.961    
     34300   68.6           664.0975       77.171364     -3739.2716      11713.92     
     34400   68.8           625.61296      72.699273     -3740.9946      13423.355    
     34500   69             676.4502       78.606808     -3739.7859      10270.682    
     34600   69.2           688.19733      79.971881     -3735.7448      14571.052    
     34700   69.4           684.09427      79.495086     -3733.7217      12516.537    
     34800   69.6           676.14415      78.571243     -3736.2766      13165.53     
     34900   69.8           651.21058      75.673842     -3741.6893      13416.498    
     35000   70             661.53785      76.87392      -3741.3436      12607.741    
     35100   70.2           670.5238       77.918132     -3738.7917      11986.612    
     35200   70.4           679.72559      78.987424     -3736.3551      11747.661    
     35300   70.6           659.33923      76.61843      -3736.623       12386.466    
     35400   70.8           628.02578      72.979654     -3739.9821      11706.643    
     35500   71             634.20264      73.697435     -3745.3574      12399.718    
     35600   71.2           635.06691      73.797868     -3742.7862      12607.831    
     35700   71.4           644.22089      74.861605     -3739.0469      12297.483    
     35800   71.6           677.36765      78.71342      -3737.2871      14406.602    
     35900   71.8           678.65068      78.862514     -3736.852       12020.688    
     36000   72             656.53347      76.292386     -3738.3737      13926.961    
     36100   72.2           630.58665      73.27724      -3742.8491      13238.809    
     36200   72.4           644.93588      74.94469      -3743.2755      11481.081    
     36300   72.6           657.00327      76.346979     -3738.6486      13297.201    
     36400   72.8           686.5073       79.775492     -3736.2308      14720.245    
     36500   73             673.53754      78.268342     -3737.412       12201.327    
     36600   73.2           679.70038      78.984494     -3739.1778      15083.445    
     36700   73.4           654.69107      76.078291     -3741.4135      13085.46     
     36800   73.6           625.89257      72.731765     -3744.7193      12854.8      
     36900   73.8           641.92217      74.594483     -3743.0468      15182.457    
     37000   74             673.08884      78.216201     -3737.9845      15464.716    
     37100   74.2           662.85349      77.026803     -3736.2857      13832.456    
     37200   74.4           686.3771       79.760362     -3736.2229      14019.444    
     37300   74.6           673.67448      78.284256     -3739.3843      13692.102    
     37400   74.8           639.7313       74.339892     -3743.6         11584.232    
     37500   75             648.87712      75.402681     -3743.3144      13016.115    
     37600   75.2           661.44833      76.863517     -3737.5253      11639.066    
     37700   75.4           671.4478       78.025504     -3735.7501      13572.512    
     37800   75.6           672.82397      78.185422     -3736.8215      13078.263    
     37900   75.8           654.68864      76.078009     -3739.5921      12704.083    
     38000   76             645.36436      74.994481     -3741.2479      12883.696    
     38100   76.2           662.32902      76.965858     -3739.6463      13965.255    
     38200   76.4           652.41546      75.813854     -3734.2918      12821.408    
     38300   76.6           664.96489      77.272159     -3733.719       13407.192    
     38400   76.8           653.89096      75.985314     -3736.9844      16370.653    
     38500   77             657.99734      76.462496     -3738.7393      14570.042    
     38600   77.2           639.74257      74.341202     -3738.9137      13530.582    
     38700   77.4           668.0088       77.625876     -3738.757       13712.399    
     38800   77.6           685.92221      79.707501     -3738.5877      12634.251    
     38900   77.8           658.8054       76.556397     -3741.1323      14831.719    
     39000   78             623.47927      72.451328     -3743.4277      14025        
     39100   78.2           659.5139       76.638727     -3741.574       14293.804    
     39200   78.4           662.46297      76.981423     -3736.9429      13688.845    
     39300   78.6           635.70995      73.872593     -3735.7304      13307.203    
     39400   78.8           672.81646      78.18455      -3736.3124      15779.764    
     39500   79             666.27356      77.424232     -3739.5934      13812.274    
     39600   79.2           649.76357      75.505691     -3744.1837      13643.117    
     39700   79.4           653.72328      75.965829     -3742.5676      13898.912    
     39800   79.6           641.05539      74.493758     -3739.7407      11459.26     
     39900   79.8           653.90058      75.986432     -3737.5102      10975.867    
     40000   80             682.65481      79.327814     -3736.9085      11830.727    
     40100   80.2           663.95669      77.155001     -3738.587       12989.983    
     40200   80.4           643.57504      74.786554     -3741.7078      12852.249    
     40300   80.6           627.67977      72.939446     -3743.6184      11032.99     
     40400   80.8           661.39551      76.85738      -3739.2848      14898.413    
     40500   81             653.42696      75.931395     -3735.6882      13913.377    
     40600   81.2           674.01042      78.323294     -3735.801       16610.645    
     40700   81.4           671.58056      78.040931     -3738.4595      14369.997    
     40800   81.6           653.62256      75.954125     -3742.0394      14686.846    
     40900   81.8           645.98557      75.066669     -3743.601       14364.748    
     41000   82             656.19195      76.2527       -3738.4715      12581.976    
     41100   82.2           665.01767      77.278292     -3734.8025      13873.325    
     41200   82.4           674.41615      78.370441     -3735.2605      13611.938    
     41300   82.6           665.84548      77.374488     -3738.801       11880.082    
     41400   82.8           648.09915      75.312278     -3741.3325      12832.099    
     41500   83             663.45585      77.096801     -3740.189       12984.57     
     41600   83.2           658.97625      76.57625      -3733.9706      14579.184    
     41700   83.4           676.7259       78.638846     -3733.79        11890.171    
     41800   83.6           658.89534      76.566847     -3736.2443      14044.288    
     41900   83.8           662.30431      76.962987     -3740.2279      12412.73     
     42000   84             628.77454      73.066664     -3741.9531      12784.876    
     42100   84.2           666.05733      77.399106     -3740.6182      12128.624    
     42200   84.4           682.77821      79.342153     -3735.4366      10932.149    
     42300   84.6           674.17574      78.342505     -3734.1795      13328.432    
     42400   84.8           690.71769      80.26476      -3736.8092      11078.171    
     42500   85             666.25459      77.422028     -3740.0404      12824.973    
     42600   85.2           641.51987      74.547733     -3741.2657      14471.965    
     42700   85.4           672.9449       78.199475     -3739.3942      15078.375    
     42800   85.6           682.46231      79.305444     -3733.7415      14768.309    
     42900   85.8           690.23044      80.208139     -3733.2632      15292.358    
     43000   86             701.1508       81.477137     -3736.7373      14385.967    
     43100   86.2           655.06039      76.121208     -3738.493       13409.315    
     43200   86.4           653.87423      75.98337      -3738.8319      14518.485    
     43300   86.6           679.65237      78.978916     -3739.0087      12337.271    
     43400   86.8           646.9181       75.175034     -3741.9218      10948.448    
     43500   87             651.22478      75.675492     -3745.517       11684.215    
     43600   87.2           653.55892      75.94673      -3743.7167      10743.633    
     43700   87.4           670.36802      77.900029     -3738.9578      13594.389    
     43800   87.6           676.0157       78.556317     -3737.7994      13225.03     
     43900   87.8           666.69027      77.472656     -3737.7383      13518.14     
     44000   88             675.58148      78.505858     -3738.9853      13398.137    
     44100   88.2           666.45435      77.445242     -3743.1375      14263.27     
     44200   88.4           611.37164      71.044362     -3745.4342      13038.099    
     44300   88.6           639.3292       74.293167     -3741.5765      12133.834    
     44400   88.8           676.60666      78.624989     -3738.9796      12870.61     
     44500   89             652.8176       75.860585     -3739.2328      14928.299    
     44600   89.2           656.20234      76.253907     -3740.5478      12536.578    
     44700   89.4           658.25553      76.492498     -3740.363       13722.107    
     44800   89.6           669.05024      77.746897     -3736.3847      14058.444    
     44900   89.8           711.36343      82.663895     -3733.8365      13748.701    
     45000   90             658.08592      76.472789     -3736.8827      15062.804    
     45100   90.2           670.63117      77.930608     -3741.2812      14680.895    
     45200   90.4           638.82077      74.234085     -3740.8779      13327.689    
     45300   90.6           676.38121      78.598791     -3738.6267      12552.462    
     45400   90.8           664.27829      77.192372     -3736.4115      16515.34     
     45500   91             713.85278      82.95317      -3734.3626      12978.33     
     45600   91.2           649.84897      75.515616     -3732.81        12871.989    
     45700   91.4           676.7808       78.645225     -3733.4853      16155.415    
     45800   91.6           667.44762      77.560665     -3737.6664      14680.641    
     45900   91.8           664.80354      77.25341      -3739.6549      11430.468    
     46000   92             686.75824      79.804652     -3740.2348      16349.116    
     46100   92.2           651.27241      75.681026     -3738.6781      12223.691    
     46200   92.4           701.42291      81.508758     -3734.2846      10819.953    
     46300   92.6           688.59441      80.018024     -3734.6145      13417.724    
     46400   92.8           654.65529      76.074133     -3738.9171      12808.911    
     46500   93             672.68         78.168692     -3740.4346      11309.055    
     46600   93.2           652.43221      75.8158       -3739.676       13819.463    
     46700   93.4           668.05013      77.630678     -3738.6046      15013.664    
     46800   93.6           674.37267      78.365389     -3738.9051      13571.148    
     46900   93.8           652.49778      75.82342      -3739.4073      12762.918    
     47000   94             666.91346      77.498592     -3738.7728      12993.392    
     47100   94.2           684.54828      79.547844     -3737.6011      14246.803    
     47200   94.4           664.14067      77.176381     -3737.0659      15501.449    
     47300   94.6           671.61315      78.044719     -3737.1872      13985.478    
     47400   94.8           680.34982      79.059962     -3738.7723      13968.723    
     47500   95             634.20137      73.697287     -3741.0183      15712.977    
     47600   95.2           645.19186      74.974437     -3742.2639      12850.89     
     47700   95.4           655.69426      76.194866     -3738.8431      12833.375    
     47800   95.6           689.41246      80.113086     -3734.7138      15676.875    
     47900   95.8           680.92879      79.127242     -3735.0389      12488.82     
     48000   96             678.53717      78.849324     -3737.9894      12139.281    
     48100   96.2           637.20221      74.046        -3739.5475      14290.083    
     48200   96.4           651.59904      75.718982     -3739.9377      12563.609    
     48300   96.6           659.73752      76.664713     -3739.8265      12802.526    
     48400   96.8           656.4147       76.278585     -3738.231       15992.617    
     48500   97             710.52948      82.566986     -3734.1037      14057.739    
     48600   97.2           678.0854       78.796826     -3735.1458      13053.738    
     48700   97.4           660.61675      76.766884     -3739.8358      16408.671    
     48800   97.6           673.94911      78.316169     -3741.4785      13758.3      
     48900   97.8           674.48246      78.378147     -3741.0191      13350.245    
     49000   98             675.34009      78.477807     -3739.9007      14836.842    
     49100   98.2           679.42815      78.952861     -3736.9414      14056.16     
     49200   98.4           694.87721      80.748116     -3733.7365      13349.593    
     49300   98.6           686.32185      79.753942     -3736.6902      13444.122    
     49400   98.8           658.98716      76.577517     -3740.5556      13525.406    
     49500   99             638.54277      74.20178      -3741.1331      14272.509    
     49600   99.2           655.89429      76.218111     -3740.8823      13798.574    
     49700   99.4           662.01805      76.929722     -3737.9419      14537.381    
     49800   99.6           706.96925      82.15327      -3732.7345      13520.114    
     49900   99.8           711.20742      82.645766     -3734.5719      12607.378    
     50000   100            677.16393      78.689746     -3737.5432      15586.549    
     50100   100.2          682.67158      79.329762     -3739.5663      13334.366    
     50200   100.4          685.64045      79.674759     -3739.9592      13235.336    
     50300   100.6          645.00471      74.952688     -3740.0888      16832.97     
     50400   100.8          660.19114      76.717426     -3738.4516      13609.554    
     50500   101            706.61279      82.111848     -3734.8506      13206.916    
     50600   101.2          668.68615      77.704587     -3734.2307      14694.27     
     50700   101.4          675.57582      78.505201     -3738.0043      14868.499    
     50800   101.6          666.77418      77.482408     -3741.4898      14524.83     
     50900   101.8          661.87216      76.912768     -3741.3053      13201.998    
     51000   102            663.3918       77.089358     -3739.9987      13145.004    
     51100   102.2          686.45536      79.769456     -3737.0269      13423.866    
     51200   102.4          685.13311      79.615804     -3731.6834      14876.791    
     51300   102.6          682.204        79.275428     -3733.0568      14914.601    
     51400   102.8          677.42112      78.719634     -3736.7325      13269.471    
     51500   103            660.09522      76.70628      -3737.7464      12293.799    
     51600   103.2          675.88256      78.540845     -3737.8456      12431.76     
     51700   103.4          656.63615      76.304318     -3737.8833      12735.072    
     51800   103.6          684.30203      79.519229     -3738.2774      11389.553    
     51900   103.8          661.15698      76.829661     -3740.0587      13099.862    
     52000   104            633.8403       73.65533      -3741.7551      12033.899    
     52100   104.2          664.05746      77.166712     -3740.8719      13594.176    
     52200   104.4          675.70358      78.520047     -3736.538       14517.129    
     52300   104.6          684.40896      79.531654     -3734.1468      13089.321    
     52400   104.8          644.94732      74.94602      -3735.7212      14243.579    
     52500   105            656.28426      76.263428     -3738.9511      16548.368    
     52600   105.2          658.72783      76.547382     -3739.5799      13081.35     
     52700   105.4          655.28505      76.147314     -3739.2122      14943.593    
     52800   105.6          682.66801      79.329347     -3738.2309      13304.04     
     52900   105.8          703.03272      81.695827     -3736.4785      13153.353    
     53000   106            694.51992      80.706597     -3734.6381      13895.201    
     53100   106.2          680.68621      79.099052     -3735.253       15272.06     
     53200   106.4          674.10048      78.333758     -3739.6246      13151.485    
     53300   106.6          647.06767      75.192415     -3741.8709      10791.093    
     53400   106.8          666.0863       77.402472     -3740.2849      14011.064    
     53500   107            688.16421      79.968033     -3736.45        13716.609    
     53600   107.2          701.39652      81.505692     -3733.1076      13677.639    
     53700   107.4          688.52458      80.00991      -3734.4258      14166.683    
     53800   107.6          669.60918      77.811848     -3737.5726      14569.755    
     53900   107.8          653.82486      75.977633     -3740.4541      11968.285    
     54000   108            652.01504      75.767323     -3741.0661      13311.723    
     54100   108.2          661.72588      76.89577      -3737.3675      13071.634    
     54200   108.4          694.96623      80.758461     -3733.2272      14371.891    
     54300   108.6          682.57744      79.318823     -3734.9361      14488.856    
     54400   108.8          659.49475      76.636502     -3737.9165      14896.684    
     54500   109            664.26129      77.190397     -3739.7517      15158.055    
     54600   109.2          650.81927      75.628369     -3740.3721      13194.475    
     54700   109.4          678.20704      78.810961     -3739.1213      13629.14     
     54800   109.6          668.80334      77.718205     -3734.485       16452.219    
     54900   109.8          668.57037      77.691133     -3733.7991      14431.485    
     55000   110            658.11625      76.476313     -3738.3199      12391.467    
     55100   110.2          641.0021       74.487565     -3740.3573      15145.768    
     55200   110.4          679.18322      78.924398     -3739.6629      12370.113    
     55300   110.6          649.90355      75.521957     -3738.1996      14662.978    
     55400   110.8          713.92013      82.960996     -3734.1938      13660.824    
     55500   111            687.62407      79.905266     -3731.5772      15638.26     
     55600   111.2          693.77056      80.619518     -3736.2441      14863.82     
     55700   111.4          645.71467      75.035189     -3739.18        13304.92     
     55800   111.6          663.75541      77.131611     -3738.3891      14011.85     
     55900   111.8          670.89549      77.961323     -3737.0476      12650.72     
     56000   112            676.85005      78.653272     -3736.2488      14375.3      
     56100   112.2          656.32885      76.268609     -3736.6976      14842.071    
     56200   112.4          692.58411      80.481647     -3739.3253      12887.844    
     56300   112.6          656.87766      76.332384     -3742.1102      12631.818    
     56400   112.8          655.24803      76.143012     -3740.6352      11921.446    
     56500   113            691.23055      80.324357     -3735.1186      14653.891    
     56600   113.2          692.74565      80.500418     -3734.5714      14097.676    
     56700   113.4          674.34011      78.361605     -3737.5032      12662.862    
     56800   113.6          645.84461      75.050289     -3740.1917      14672.102    
     56900   113.8          648.98326      75.415015     -3740.7563      14814.765    
     57000   114            649.92332      75.524255     -3740.1966      12872.447    
     57100   114.2          670.06467      77.864778     -3738.4919      12775.492    
     57200   114.4          659.06188      76.5862       -3737.5231      12077.495    
     57300   114.6          679.33237      78.94173      -3736.2876      13176.205    
     57400   114.8          653.01472      75.883491     -3737.0322      10963.805    
     57500   115            646.32664      75.106303     -3740.4209      12339.778    
     57600   115.2          656.80336      76.32375      -3743.4902      14240.399    
     57700   115.4          646.87943      75.170541     -3742.2718      13001.346    
     57800   115.6          667.76687      77.597762     -3735.9899      11854.741    
     57900   115.8          702.45267      81.628422     -3735.6906      14350.959    
     58000   116            655.06109      76.121289     -3738.9467      13084.254    
     58100   116.2          650.5923       75.601994     -3740.5997      13679.252    
     58200   116.4          647.65076      75.260173     -3739.6332      12938.587    
     58300   116.6          706.81868      82.135773     -3733.1866      14014.627    
     58400   116.8          676.65321      78.630399     -3734.1913      14475.338    
     58500   117            657.45746      76.399758     -3738.2145      13155.33     
     58600   117.2          666.76813      77.481704     -3740.4364      11532.902    
     58700   117.4          639.00066      74.254989     -3741.3963      16382.126    
     58800   117.6          666.01124      77.39375      -3739.7879      11126.471    
     58900   117.8          689.3049       80.100586     -3733.9477      11909.445    
     59000   118            691.9671       80.409947     -3734.0362      15608.433    
     59100   118.2          665.17584      77.296673     -3736.9577      14528.925    
     59200   118.4          658.65007      76.538346     -3739.3695      13744.405    
     59300   118.6          673.02469      78.208747     -3740.0228      13427.589    
     59400   118.8          650.79108      75.625093     -3739.9971      12410.545    
     59500   119            688.98497      80.063409     -3735.4714      16084.592    
     59600   119.2          712.38926      82.783102     -3731.9073      12958.573    
     59700   119.4          683.3628       79.410086     -3734.6318      13705.238    
     59800   119.6          673.67971      78.284863     -3738.0766      12658.33     
     59900   119.8          698.35233      81.151942     -3738.5367      12613.502    
     60000   120            669.32085      77.778343     -3738.1755      12571.361    
     60100   120.2          685.51508      79.660191     -3736.1673      16011.059    
     60200   120.4          722.35475      83.94114      -3732.1856      14050.503    
     60300   120.6          671.09919      77.984995     -3734.427       14361.888    
     60400   120.8          663.84238      77.141718     -3738.9854      14884.305    
     60500   121            650.66116      75.609996     -3739.4621      15035.61     
     60600   121.2          676.17711      78.575074     -3737.6446      13611.77     
     60700   121.4          673.40249      78.25265      -3735.5346      15143.657    
     60800   121.6          673.63584      78.279765     -3734.1268      15189.629    
     60900   121.8          683.40135      79.414565     -3733.6097      15294.647    
     61000   122            672.57649      78.156664     -3737.0498      12814.228    
     61100   122.2          680.03693      79.023603     -3740.492       15579.661    
     61200   122.4          653.3424       75.921568     -3741.7961      12789.186    
     61300   122.6          654.73785      76.083727     -3740.2792      13242.884    
     61400   122.8          699.4996       81.28526      -3734.218       15783.538    
     61500   123            675.80871      78.532263     -3733.8477      14117.419    
     61600   123.2          674.93869      78.431164     -3736.9324      13195.28     
     61700   123.4          676.37428      78.597986     -3739.6584      15422.407    
     61800   123.6          656.10299      76.242363     -3740.125       14802.06     
     61900   123.8          668.57419      77.691577     -3739.817       13145.253    
     62000   124            680.1602       79.037928     -3737.8539      15378.073    
     62100   124.2          706.52902      82.102114     -3732.4098      12118.278    
     62200   124.4          675.3814       78.482608     -3732.5886      12275.681    
     62300   124.6          680.49903      79.077302     -3736.8831      12856.502    
     62400   124.8          656.63463      76.304142     -3739.0202      13506.166    
     62500   125            658.80165      76.555961     -3739.0542      12778.768    
     62600   125.2          656.88252      76.332949     -3738.3291      16285.522    
     62700   125.4          680.88787      79.122487     -3735.4606      13225.148    
     62800   125.6          667.1908       77.53082      -3732.9707      13162.772    
     62900   125.8          688.46119      80.002544     -3734.71        15399.193    
     63000   126            658.23051      76.489591     -3740.0194      13263.256    
     63100   126.2          670.11601      77.870744     -3740.2361      14125.826    
     63200   126.4          650.97156      75.646066     -3739.3568      15284.001    
     63300   126.6          677.10507      78.682907     -3735.3999      13224.159    
     63400   126.8          674.27731      78.354307     -3732.4379      13953.418    
     63500   127            659.17413      76.599245     -3735.5595      15036.43     
     63600   127.2          657.68076      76.425707     -3740.9467      13419.052    
     63700   127.4          650.44841      75.585273     -3740.7098      15352.409    
     63800   127.6          633.93967      73.666877     -3737.8031      14565.013    
     63900   127.8          670.43075      77.907319     -3734.2778      13234.71     
     64000   128            664.77617      77.250228     -3734.857       15424.884    
     64100   128.2          666.4508       77.444828     -3737.2463      12853.473    
     64200   128.4          637.72246      74.106455     -3738.4597      13811.51     
     64300   128.6          669.424        77.790329     -3738.2238      14616.561    
     64400   128.8          643.75744      74.80775      -3737.9962      13039.063    
     64500   129            683.27451      79.399826     -3738.3992      14412.59     
     64600   129.2          648.07368      75.309318     -3741.0448      15080.697    
     64700   129.4          652.38901      75.81078      -3743.3342      12214.511    
     64800   129.6          656.22618      76.256678     -3741.8894      11953.485    
     64900   129.8          694.82506      80.742056     -3736.7171      16350.102    
     65000   130            680.07272      79.027763     -3736.0034      13164.541    
     65100   130.2          654.8434       76.095993     -3737.6559      12833.722    
     65200   130.4          647.3336       75.223317     -3740.446       14592.343    
     65300   130.6          624.72693      72.596312     -3744.9099      14666.093    
     65400   130.8          640.55584      74.435708     -3748.0323      12833.21     
     65500   131            677.04025      78.675375     -3742.3401      11161.508    
     65600   131.2          661.04187      76.816285     -3739.2847      14488.016    
     65700   131.4          663.98108      77.157836     -3736.6931      12020.532    
     65800   131.6          663.81051      77.138015     -3735.779       11707.521    
     65900   131.8          671.62038      78.045559     -3738.167       14915.893    
     66000   132            648.6659       75.378137     -3741.4756      13714.979    
     66100   132.2          674.55987      78.387142     -3743.0406      14559.48     
     66200   132.4          680.42727      79.068962     -3739.6975      13506.009    
     66300   132.6          674.49738      78.379881     -3735.1264      14902.945    
     66400   132.8          683.18921      79.389913     -3736.3425      13067.416    
     66500   133            669.42616      77.79058      -3739.8845      13811.101    
     66600   133.2          666.56296      77.457862     -3742.088       11522.304    
     66700   133.4          655.28773      76.147626     -3740.8183      14026.181    
     66800   133.6          705.88874      82.027709     -3736.11        14355.337    
     66900   133.8          682.92151      79.358805     -3731.1677      13631.628    
     67000   134            666.39994      77.438918     -3734.2702      13391.698    
     67100   134.2          688.80764      80.042802     -3738.0503      14442.981    
     67200   134.4          649.53198      75.478779     -3741.0487      13259.907    
     67300   134.6          662.91042      77.03342      -3741.1163      13770.696    
     67400   134.8          699.67472      81.30561      -3736.6906      13551.122    
     67500   135            686.2692       79.747824     -3733.9991      13969.203    
     67600   135.2          684.56772      79.550104     -3736.0923      13701.68     
     67700   135.4          675.73527      78.52373      -3738.4958      14856.989    
     67800   135.6          668.80149      77.717991     -3740.5314      10707.983    
     67900   135.8          675.98514      78.552766     -3740.9357      13903.315    
     68000   136            666.03677      77.396717     -3736.9589      14870.458    
     68100   136.2          685.68505      79.679943     -3732.6628      13540.128    
     68200   136.4          684.65312      79.560027     -3735.928       14303.821    
     68300   136.6          668.6452       77.699829     -3738.8281      15153.25     
     68400   136.8          661.86812      76.912299     -3739.882       14086.345    
     68500   137            656.06856      76.238362     -3739.5285      13403.327    
     68600   137.2          679.23765      78.930723     -3734.3094      15460.892    
     68700   137.4          681.65049      79.211107     -3732.6257      14666.952    
     68800   137.6          681.82798      79.231732     -3735.7739      14487.003    
     68900   137.8          690.45448      80.234174     -3739.3626      15327.998    
     69000   138            679.33399      78.941918     -3740.3977      12027.73     
     69100   138.2          647.60642      75.25502      -3739.7377      15131.13     
     69200   138.4          658.92115      76.569847     -3736.5874      11549.412    
     69300   138.6          687.58319      79.900515     -3732.6304      15225.139    
     69400   138.8          686.42885      79.766375     -3734.1132      13937.744    
     69500   139            669.20129      77.764449     -3739.9837      12901.696    
     69600   139.2          662.75978      77.015914     -3740.038       13244.627    
     69700   139.4          652.34104      75.805207     -3738.4537      13521.125    
     69800   139.6          654.82356      76.093687     -3736.1347      11460.833    
     69900   139.8          660.52177      76.755847     -3733.8183      12613.039    
     70000   140            687.98393      79.947083     -3732.3837      15210.76     
     70100   140.2          666.48512      77.448817     -3735.7698      12418.91     
     70200   140.4          681.83214      79.232215     -3740.3048      12925.713    
     70300   140.6          670.52584      77.918369     -3741.3779      13688.637    
     70400   140.8          668.0769       77.633789     -3739.1874      12363.516    
     70500   141            696.69784      80.959683     -3734.5082      13176.377    
     70600   141.2          663.40834      77.091281     -3733.4774      14765.931    
     70700   141.4          679.8975       79.007401     -3735.2143      12022.334    
     70800   141.6          664.15859      77.178462     -3736.9699      14229.475    
     70900   141.8          655.64106      76.188684     -3740.0848      13292.923    
     71000   142            667.10846      77.521252     -3741.2053      12334.357    
     71100   142.2          646.96616      75.180619     -3738.5006      13406.946    
     71200   142.4          689.6596       80.141804     -3732.8749      16400.628    
     71300   142.6          646.37606      75.112047     -3734.8696      14955.227    
     71400   142.8          643.79444      74.812049     -3738.5844      15419.098    
     71500   143            661.03244      76.815189     -3740.182       12689.821    
     71600   143.2          669.04451      77.746231     -3740.2247      12798.542    
     71700   143.4          678.64402      78.86174      -3738.7903      12544.114    
     71800   143.6          690.49694      80.239107     -3733.9292      13874.594    
     71900   143.8          686.66018      79.793257     -3733.7474      13715.745    
     72000   144            677.2011       78.694066     -3738.4124      14916.664    
     72100   144.2          658.02119      76.465267     -3740.8888      11775.264    
     72200   144.4          666.58539      77.460468     -3741.2764      15767.577    
     72300   144.6          670.18915      77.879243     -3739.1947      12470.553    
     72400   144.8          684.54801      79.547812     -3734.9141      15533.762    
     72500   145            673.02999      78.209363     -3734.766       13384.041    
     72600   145.2          666.72335      77.476501     -3739.9192      14060.718    
     72700   145.4          645.10618      74.96448      -3742.2717      13824.327    
     72800   145.6          669.67479      77.819473     -3740.485       11145.419    
     72900   145.8          642.44848      74.655642     -3737.153       12927.773    
     73000   146            691.50784      80.356578     -3734.8918      14136.861    
     73100   146.2          695.62339      80.834826     -3737.0312      14208.774    
     73200   146.4          663.88702      77.146905     -3741.9727      11756.219    
     73300   146.6          644.7205       74.919662     -3741.7137      13677.42     
     73400   146.8          668.66402      77.702015     -3739.3953      14300.547    
     73500   147            671.30569      78.008991     -3737.7304      10997.695    
     73600   147.2          683.86128      79.468012     -3736.1345      12448.579    
     73700   147.4          676.10944      78.56721      -3734.5537      15335.329    
     73800   147.6          708.20616      82.297005     -3731.7081      11573.906    
     73900   147.8          687.88554      79.935651     -3734.3238      13226.448    
     74000   148            628.62509      73.049298     -3739.1427      16515.249    
     74100   148.2          653.95249      75.992464     -3740.5568      14716.178    
     74200   148.4          662.61373      76.998943     -3739.9918      13685.114    
     74300   148.6          687.24891      79.861671     -3735.8703      14956.06     
     74400   148.8          691.89053      80.401049     -3732.7436      11354.516    
     74500   149            662.57431      76.994361     -3734.5684      15091.718    
     74600   149.2          644.69932      74.917201     -3740.8301      15177.486    
     74700   149.4          660.91011      76.800973     -3740.5558      13905.763    
     74800   149.6          646.80951      75.162415     -3738.102       12432.622    
     74900   149.8          692.79078      80.505663     -3734.6453      16893.707    
     75000   150            685.07724      79.609311     -3734.5817      13802.448    
     75100   150.2          664.33751      77.199254     -3741.3664      13884.229    
     75200   150.4          651.54112      75.712251     -3742.4829      13129.64     
     75300   150.6          644.59679      74.905286     -3739.0249      12631.666    
     75400   150.8          661.0622       76.818647     -3735.7674      13549.667    
     75500   151            691.34082      80.33717      -3734.5986      12922.893    
     75600   151.2          678.94725      78.896977     -3735.5273      14094.06     
     75700   151.4          645.38152      74.996476     -3741.8226      12535.169    
     75800   151.6          651.99036      75.764455     -3742.1842      12882.651    
     75900   151.8          656.22803      76.256894     -3738.7303      13556.504    
     76000   152            686.55644      79.781202     -3736.2104      13771.679    
     76100   152.2          679.23623      78.930558     -3735.7941      13020.912    
     76200   152.4          683.41317      79.415939     -3736.3267      15498.882    
     76300   152.6          663.09971      77.055416     -3742.4771      12961.501    
     76400   152.8          632.34819      73.481939     -3743.8174      13766.921    
     76500   153            645.10463      74.9643       -3740.6877      15383.515    
     76600   153.2          659.09677      76.590255     -3737.8602      11553.378    
     76700   153.4          673.36859      78.24871      -3736.9405      13079.999    
     76800   153.6          675.77531      78.528382     -3737.2609      14108.75     
     76900   153.8          658.54902      76.526603     -3739.0276      13717.298    
     77000   154            619.05758      71.937506     -3745.5821      13051.403    
     77100   154.2          651.53617      75.711677     -3744.5606      15170.375    
     77200   154.4          643.31272      74.756071     -3740.0662      12097.703    
     77300   154.6          653.52344      75.942607     -3737.7093      12825.607    
     77400   154.8          673.37773      78.249772     -3736.8261      15037.767    
     77500   155            662.21955      76.953137     -3737.1817      14313.04     
     77600   155.2          652.77641      75.855798     -3741.9871      15223.809    
     77700   155.4          651.49551      75.706951     -3744.4678      12587.507    
     77800   155.6          645.82         75.047429     -3742.2376      16676.129    
     77900   155.8          665.8306       77.372758     -3738.9529      13556.874    
     78000   156            659.45767      76.632193     -3737.9573      15660.698    
     78100   156.2          669.05868      77.747877     -3737.5457      15027.463    
     78200   156.4          663.7428       77.130145     -3737.7218      13689.757    
     78300   156.6          697.42296      81.043945     -3738.836       13047.597    
     78400   156.8          645.46191      75.005818     -3741.5227      16091.561    
     78500   157            642.35216      74.64445      -3742.6449      13451.783    
     78600   157.2          656.09842      76.241831     -3738.8514      15232.314    
     78700   157.4          696.87992      80.980841     -3735.2186      14910.221    
     78800   157.6          684.69774      79.565212     -3735.6728      12627.262    
     78900   157.8          665.22008      77.301813     -3738.0574      12434.208    
     79000   158            679.98703      79.017805     -3740.1382      13265.125    
     79100   158.2          638.57365      74.205369     -3745.1417      10069.784    
     79200   158.4          613.69459      71.314301     -3747.8556      12742.704    
     79300   158.6          654.96474      76.110093     -3743.6037      11792.933    
     79400   158.8          668.89249      77.728565     -3740.5462      12526.124    
     79500   159            655.65583      76.190401     -3738.4924      12773.512    
     79600   159.2          704.0092       81.809298     -3736.916       14573.558    
     79700   159.4          690.42881      80.231191     -3733.9138      15282.064    
     79800   159.6          702.11177      81.588807     -3731.1985      13926.403    
     79900   159.8          671.3719       78.016685     -3734.4569      15095.41     
     80000   160            663.26109      77.074169     -3739.448       13569.799    
     80100   160.2          658.13537      76.478535     -3740.3983      12823.976    
     80200   160.4          653.15224      75.899471     -3739.4519      14411.732    
     80300   160.6          693.93618      80.638763     -3735.6435      14195.316    
     80400   160.8          661.71775      76.894825     -3734.1919      14537.587    
     80500   161            658.38083      76.507059     -3738.9247      11993.937    
     80600   161.2          657.18799      76.368446     -3742.3077      13749.346    
     80700   161.4          676.63866      78.628708     -3740.5234      10624.06     
     80800   161.6          675.81607      78.533119     -3737.7951      11969.583    
     80900   161.8          661.96685      76.923772     -3736.6549      16440.064    
     81000   162            676.80776      78.648358     -3736.9859      11416.963    
     81100   162.2          697.30193      81.029881     -3737.6446      14172.413    
     81200   162.4          671.28564      78.006661     -3739.3805      13903.271    
     81300   162.6          649.66243      75.493939     -3741.1998      12823.467    
     81400   162.8          671.97449      78.086709     -3741.1206      13329.709    
     81500   163            691.93327      80.406016     -3738.131       12295.707    
     81600   163.2          690.97919      80.295147     -3734.2482      12530.65     
     81700   163.4          668.67961      77.703828     -3735.3599      15311.939    
     81800   163.6          655.56644      76.180013     -3740.2808      11978.606    
     81900   163.8          667.76163      77.597154     -3742.429       12215.55     
     82000   164            649.00065      75.417037     -3740.8162      11427.514    
     82100   164.2          655.52149      76.17479      -3737.8801      13252.131    
     82200   164.4          669.79514      77.833457     -3736.3151      11631.314    
     82300   164.6          674.40817      78.369514     -3736.7205      13864.258    
     82400   164.8          646.98849      75.183213     -3742.0471      11402.778    
     82500   165            645.89621      75.056286     -3743.2958      12250.713    
     82600   165.2          656.63711      76.30443      -3739.8966      14083.63     
     82700   165.4          661.11522      76.824808     -3736.9846      12159.406    
     82800   165.6          676.19221      78.576828     -3737.2117      13926.534    
     82900   165.8          673.06614      78.213564     -3738.5894      13435.255    
     83000   166            693.942        80.63944      -3739.5626      12683.454    
     83100   166.2          687.19538      79.85545      -3740.0615      14243.662    
     83200   166.4          654.61267      76.069181     -3738.0216      15802.382    
     83300   166.6          693.43448      80.580464     -3733.5545      14713.835    
     83400   166.8          704.29853      81.842919     -3733.5503      14256.528    
     83500   167            666.06656      77.400178     -3737.7371      13083.299    
     83600   167.2          664.0924       77.170771     -3740.5078      13240.647    
     83700   167.4          667.39236      77.554242     -3739.6409      13878.29     
     83800   167.6          671.09536      77.98455      -3738.0531      16043.452    
     83900   167.8          705.67633      82.003027     -3732.6585      14950.172    
     84000   168            705.07125      81.932713     -3731.1707      14163.444    
     84100   168.2          688.26358      79.97958      -3735.5113      15527.65     
     84200   168.4          655.59647      76.183503     -3738.0331      14590.031    
     84300   168.6          641.93763      74.596279     -3739.9782      14115.048    
     84400   168.8          651.98207      75.763492     -3740.0016      13577.226    
     84500   169            700.31186      81.379649     -3735.7185      12569.168    
     84600   169.2          689.63832      80.139331     -3732.1511      14008.224    
     84700   169.4          680.51664      79.079347     -3734.3834      13456.695    
     84800   169.6          660.21616      76.720333     -3737.4222      13789.137    
     84900   169.8          668.1348       77.640518     -3738.545       13150.996    
     85000   170            642.89828      74.707911     -3739.6634      15446.236    
     85100   170.2          667.71156      77.591335     -3739.3218      12693.444    
     85200   170.4          687.55741      79.89752      -3735.6884      12618.302    
     85300   170.6          688.47478      80.004122     -3732.9604      15110.186    
     85400   170.8          656.90262      76.335284     -3735.0399      12452.052    
     85500   171            648.72018      75.384444     -3739.9384      13055.565    
     85600   171.2          629.78077      73.183593     -3741.1259      12333.424    
     85700   171.4          646.00298      75.068693     -3739.8892      13690.152    
[...]
    478600   957.2          688.93253      80.057316     -3736.0859      16030.4      
    478700   957.4          642.40749      74.650879     -3740.8315      11640.907    
    478800   957.6          651.93269      75.757754     -3741.5392      13309.566    
    478900   957.8          674.48022      78.377887     -3740.4011      15293.452    
    479000   958            682.78013      79.342377     -3736.2015      11932.481    
    479100   958.2          675.30423      78.47364      -3734.6698      14012.225    
    479200   958.4          664.81963      77.255279     -3737.0703      14208.586    
    479300   958.6          670.81007      77.951397     -3742.9937      11581.422    
    479400   958.8          633.05532      73.564112     -3742.8433      12334.206    
    479500   959            675.50581      78.497065     -3738.9497      14166.453    
    479600   959.2          665.11096      77.289132     -3736.5017      13362.082    
    479700   959.4          684.36876      79.526983     -3735.871       15919.023    
    479800   959.6          634.67165      73.751937     -3738.9272      13893.051    
    479900   959.8          631.36135      73.367264     -3744.1302      14053.022    
    480000   960            638.82822      74.23495      -3742.7045      11239.344    
    480100   960.2          692.72448      80.497959     -3739.1412      15097.038    
    480200   960.4          694.65773      80.722612     -3737.5333      15795.36     
    480300   960.6          676.20165      78.577926     -3737.5108      11275.038    
    480400   960.8          653.23936      75.909596     -3739.5585      14421.189    
    480500   961            636.76054      73.994676     -3744.7685      16068.55     
    480600   961.2          644.03748      74.840292     -3745.3808      11611.7      
    480700   961.4          677.24553      78.699229     -3741.737       13791.678    
    480800   961.6          665.29068      77.310017     -3739.4012      13399.437    
    480900   961.8          663.21643      77.068979     -3739.1309      14476.04     
    481000   962            665.2871       77.309601     -3739.7329      13047.824    
    481100   962.2          655.00853      76.115181     -3741.0442      14807.741    
    481200   962.4          654.39241      76.043585     -3743.9162      14427.168    
    481300   962.6          650.5643       75.59874      -3745.5665      12133.227    
    481400   962.8          647.74057      75.270609     -3742.2807      13667.139    
    481500   963            664.07669      77.168946     -3737.9749      12558.691    
    481600   963.2          674.82515      78.417969     -3737.582       13485.518    
    481700   963.4          672.56561      78.1554       -3738.8171      14296.54     
    481800   963.6          675.64701      78.513473     -3742.2465      12493.445    
    481900   963.8          642.63698      74.677547     -3745.3304      13403.087    
    482000   964            664.4755       77.21529      -3742.0509      13861.31     
    482100   964.2          687.1382       79.848805     -3737.0631      13519.774    
    482200   964.4          675.37363      78.481705     -3737.0058      14911.882    
    482300   964.6          671.06033      77.980479     -3739.7871      12470.733    
    482400   964.8          666.70867      77.474795     -3741.692       12069.674    
    482500   965            643.04987      74.725526     -3739.666       16697.123    
    482600   965.2          680.31223      79.055594     -3733.7602      11957.306    
    482700   965.4          681.15218      79.153201     -3733.7302      15969.177    
    482800   965.6          672.48639      78.146194     -3737.1382      14307.821    
    482900   965.8          654.07855      76.007113     -3739.4411      14905.195    
    483000   966            637.89012      74.125939     -3740.0404      13857.01     
    483100   966.2          661.27982      76.843936     -3739.1548      15185.234    
    483200   966.4          694.3355       80.685166     -3737.1472      13236.93     
    483300   966.6          685.96193      79.712117     -3731.4415      15433.659    
    483400   966.8          693.50077      80.588167     -3732.1081      14215.511    
    483500   967            663.47971      77.099574     -3736.9363      12789.737    
    483600   967.2          669.78449      77.83222      -3738.6898      14311.973    
    483700   967.4          671.27507      78.005433     -3739.1024      12804.297    
    483800   967.6          664.33032      77.198419     -3739.2535      13755.135    
    483900   967.8          672.42625      78.139205     -3739.2165      13084.613    
    484000   968            640.3782       74.415066     -3739.7349      13043.42     
    484100   968.2          685.78298      79.691322     -3739.2319      13071.103    
    484200   968.4          659.69465      76.659731     -3738.992       13962.076    
    484300   968.6          667.08209      77.518188     -3740.0843      15693.594    
    484400   968.8          669.6108       77.812036     -3742.9164      14630.162    
    484500   969            649.6107       75.487927     -3744.0112      13902.346    
    484600   969.2          654.27374      76.029795     -3740.469       15215.872    
    484700   969.4          685.85382      79.699555     -3736.3462      15839.52     
    484800   969.6          648.62176      75.373007     -3736.6971      14527.973    
    484900   969.8          678.20731      78.810992     -3739.6759      12436.179    
    485000   970            664.1226       77.174281     -3742.2067      11782.129    
    485100   970.2          661.76413      76.900215     -3741.551       13501.57     
    485200   970.4          659.80908      76.673028     -3735.607       12949.996    
    485300   970.6          707.51844      82.217089     -3734.5222      12114.276    
    485400   970.8          658.51705      76.522888     -3738.3056      13178.551    
    485500   971            685.5569       79.66505      -3740.9288      13203.762    
    485600   971.2          656.73553      76.315867     -3741.7025      14337.999    
    485700   971.4          678.14423      78.803662     -3739.3639      13681.731    
    485800   971.6          673.55989      78.27094      -3733.3358      15423.839    
    485900   971.8          697.8159       81.089607     -3733.6912      14871.167    
    486000   972            655.29556      76.148535     -3737.8918      14780.507    
    486100   972.2          668.7965       77.71741      -3740.1699      13514.353    
    486200   972.4          651.05128      75.655329     -3740.5864      15196.864    
    486300   972.6          664.34385      77.199991     -3738.8912      12780.237    
    486400   972.8          696.96274      80.990465     -3733.7944      14129.808    
    486500   973            691.45379      80.350298     -3732.0339      14294.377    
    486600   973.2          671.30646      78.00908      -3737.2343      13058.597    
    486700   973.4          651.95546      75.7604       -3739.6685      13389.85     
    486800   973.6          654.069        76.006004     -3739.8418      13511.537    
    486900   973.8          682.57934      79.319044     -3739.3054      12424.588    
    487000   974            680.86185      79.119462     -3737.8666      14834.368    
    487100   974.2          684.11809      79.497854     -3735.3722      13207.57     
    487200   974.4          694.81824      80.741263     -3737.5242      12992.161    
    487300   974.6          632.00061      73.441549     -3742.6583      14402.28     
    487400   974.8          636.46916      73.960816     -3743.1928      13766.615    
    487500   975            663.78195      77.134696     -3740.6607      15071.384    
    487600   975.2          664.3622       77.202124     -3738.3342      12415.216    
    487700   975.4          668.87475      77.726503     -3737.6215      11775.475    
    487800   975.6          668.2301       77.651592     -3738.1654      12742.56     
    487900   975.8          664.81685      77.254956     -3739.4123      14323.008    
    488000   976            639.96978      74.367606     -3741.8436      15147.044    
    488100   976.2          638.69024      74.218916     -3744.5795      13591.707    
    488200   976.4          639.50833      74.313983     -3746.774       13738.455    
    488300   976.6          663.70901      77.12622      -3742.4462      14870.371    
    488400   976.8          654.99923      76.1141       -3739.0566      15551.216    
    488500   977            655.57194      76.180652     -3737.9374      12428.285    
    488600   977.2          661.91896      76.918207     -3737.073       15586.665    
    488700   977.4          651.74104      75.735483     -3738.8822      14180.922    
    488800   977.6          644.25711      74.865814     -3742.963       12492.991    
    488900   977.8          646.06938      75.076409     -3744.3506      12460.15     
    489000   978            670.87395      77.95882      -3740.782       11902.2      
    489100   978.2          685.7325       79.685456     -3736.6463      14943.805    
    489200   978.4          653.83913      75.979291     -3737.3832      11410.911    
    489300   978.6          672.63211      78.163127     -3739.576       11472.02     
    489400   978.8          640.52661      74.432312     -3742.8283      11192.412    
    489500   979            662.16778      76.947121     -3744.2516      13469.692    
    489600   979.2          687.46589      79.886884     -3739.1978      13380.421    
    489700   979.4          688.02853      79.952266     -3735.5624      13614.541    
    489800   979.6          664.98287      77.274249     -3735.8257      15080.881    
    489900   979.8          675.20885      78.462557     -3739.1248      14425.15     
    490000   980            659.79698      76.671622     -3742.6629      13179.935    
    490100   980.2          664.246        77.18862      -3742.729       13112.545    
    490200   980.4          669.87271      77.842471     -3740.4091      12348.883    
    490300   980.6          674.40524      78.369174     -3739.1719      14994.067    
    490400   980.8          647.12789      75.199413     -3739.1151      13548.613    
    490500   981            662.81487      77.022316     -3738.73        14649.052    
    490600   981.2          677.12433      78.685145     -3737.9146      11559.526    
    490700   981.4          669.20616      77.765015     -3737.9258      13824.912    
    490800   981.6          657.56331      76.412059     -3739.1156      13133.05     
    490900   981.8          670.17804      77.877953     -3740.0863      13699.615    
    491000   982            661.88904      76.91473      -3741.5532      14510.155    
    491100   982.2          666.31095      77.428578     -3742.1093      10389.903    
    491200   982.4          667.42782      77.558363     -3739.5174      13844.142    
    491300   982.6          699.44382      81.278779     -3735.8179      14342.131    
    491400   982.8          689.19913      80.088295     -3736.5527      11588.393    
    491500   983            643.45552      74.772665     -3740.6206      14498.374    
    491600   983.2          623.41134      72.443435     -3743.4846      14759.46     
    491700   983.4          642.53064      74.66519      -3741.8002      13641.008    
    491800   983.6          679.62506      78.975742     -3738.8607      13210.469    
    491900   983.8          685.16934      79.620014     -3737.1883      13156.773    
    492000   984            671.16676      77.992847     -3737.1036      13144.504    
    492100   984.2          652.51925      75.825915     -3740.1949      14422.828    
    492200   984.4          638.18206      74.159864     -3744.4301      14553.41     
    492300   984.6          640.6751       74.449567     -3744.0908      12939.472    
    492400   984.8          686.83972      79.814121     -3739.8375      13145.214    
    492500   985            691.48698      80.354155     -3737.4559      13824.905    
    492600   985.2          669.52548      77.802122     -3737.5482      12544.812    
    492700   985.4          677.19287      78.69311      -3739.4362      14048.457    
    492800   985.6          640.39819      74.417389     -3743.0317      13788.754    
    492900   985.8          653.87412      75.983358     -3745.5813      13219.968    
    493000   986            648.66146      75.377621     -3743.4721      13433.344    
    493100   986.2          675.98413      78.552649     -3737.5435      14264.076    
    493200   986.4          696.22884      80.905182     -3735.5445      14744.927    
    493300   986.6          672.34262      78.129488     -3735.7412      15417.971    
    493400   986.8          660.29631      76.729647     -3739.0035      13042.518    
    493500   987            655.986        76.228768     -3741.9576      15404.925    
    493600   987.2          648.03068      75.304321     -3740.8472      15917.864    
    493700   987.4          699.20487      81.251012     -3734.3817      11746.937    
    493800   987.6          671.38902      78.018674     -3734.0031      13904.053    
    493900   987.8          678.75487      78.874622     -3736.3828      14017.958    
    494000   988            661.06315      76.818758     -3740.0152      12855.357    
    494100   988.2          653.72885      75.966476     -3741.142       10230.942    
    494200   988.4          676.9389       78.663597     -3739.3604      13376.473    
    494300   988.6          701.6356       81.533473     -3732.9449      12871.372    
    494400   988.8          708.96603      82.385305     -3732.8961      12192.107    
    494500   989            653.45528      75.934686     -3736.6017      14733.996    
    494600   989.2          652.13207      75.780923     -3739.0664      14380.589    
    494700   989.4          655.97539      76.227535     -3739.9812      12418.041    
    494800   989.6          653.02305      75.884459     -3739.0963      15180.662    
    494900   989.8          669.12787      77.755917     -3734.5231      13652.774    
    495000   990            679.18545      78.924657     -3733.6269      15107.704    
    495100   990.2          639.8357       74.352024     -3738.7317      16997.683    
    495200   990.4          649.94462      75.526731     -3740.0876      12873.325    
    495300   990.6          669.32015      77.778261     -3739.6599      13483.385    
    495400   990.8          663.40583      77.090988     -3738.0807      14054.663    
    495500   991            694.5399       80.708919     -3734.4076      11802.324    
    495600   991.2          714.85291      83.069389     -3731.4278      12497.367    
    495700   991.4          703.50783      81.751036     -3734.9529      14404.887    
    495800   991.6          679.21411      78.927987     -3739.2979      10416.919    
    495900   991.8          673.59635      78.275176     -3739.6194      14490.256    
    496000   992            656.48361      76.286593     -3739.372       13033.824    
    496100   992.2          655.40457      76.161204     -3738.741       12699.422    
    496200   992.4          696.96006      80.990154     -3738.6669      12868.625    
    496300   992.6          657.30574      76.382128     -3739.8995      14906.407    
    496400   992.8          657.05657      76.353174     -3741.9123      12724.407    
    496500   993            656.22106      76.256083     -3741.8703      14694.493    
    496600   993.2          680.35795      79.060907     -3738.2853      14611.033    
    496700   993.4          659.01911      76.58123      -3734.833       13276.418    
    496800   993.6          670.8005       77.950285     -3734.9015      14971.73     
    496900   993.8          662.26172      76.958037     -3739.5585      13675.37     
    497000   994            654.64011      76.072369     -3743.1052      13216.057    
    497100   994.2          641.07463      74.495994     -3741.0144      13633.591    
    497200   994.4          667.06749      77.516491     -3737.2643      12064.588    
    497300   994.6          682.57354      79.318369     -3735.3317      14036.072    
    497400   994.8          677.20579      78.694611     -3735.0179      14036.54     
    497500   995            640.62231      74.443433     -3737.9587      12868.758    
    497600   995.2          646.41371      75.116422     -3742.6759      13554.938    
    497700   995.4          663.79921      77.136701     -3742.0804      13497.64     
    497800   995.6          652.17501      75.785912     -3738.4292      12408.796    
    497900   995.8          681.28978      79.169191     -3737.2858      14104.889    
    498000   996            699.24363      81.255515     -3738.2922      13766.439    
    498100   996.2          679.18453      78.924551     -3740.0006      10659.874    
    498200   996.4          677.33717      78.709878     -3742.0353      13030.454    
    498300   996.6          630.73894      73.294937     -3747.1164      14948.477    
    498400   996.8          613.37764      71.277469     -3746.1743      12559.208    
    498500   997            676.53432      78.616584     -3741.4859      15286.881    
    498600   997.2          648.58034      75.368194     -3739.3917      13592.867    
    498700   997.4          668.23882      77.652606     -3737.3418      15145.971    
    498800   997.6          699.88571      81.330128     -3736.6571      13593.183    
    498900   997.8          664.27942      77.192504     -3739.0831      13928.713    
    499000   998            641.67803      74.566113     -3743.358       13267.345    
    499100   998.2          637.68679      74.102311     -3742.4969      12263.738    
    499200   998.4          662.32476      76.965363     -3738.3452      12589.203    
    499300   998.6          682.85821      79.35145      -3737.0055      14194.031    
    499400   998.8          698.1747       81.1313       -3738.5892      11475.346    
    499500   999            662.7392       77.013522     -3741.896       12983.126    
    499600   999.2          676.47703      78.609925     -3742.852       14499.039    
    499700   999.4          661.16533      76.830632     -3737.9455      14030.411    
    499800   999.6          694.7409       80.732277     -3734.3774      14100.273    
    499900   999.8          682.0338       79.25565      -3736.4883      12783.086    
    500000   1000           657.52919      76.408095     -3740.8276      14964.675    
Loop time of 29303 on 1 procs for 500000 steps with 900 atoms

Performance: 2.949 ns/day, 8.140 hours/ns, 17.063 timesteps/s
59.8% CPU use with 1 MPI tasks x 1 OpenMP threads

MPI task timing breakdown:
Section |  min time  |  avg time  |  max time  |%varavg| %total
---------------------------------------------------------------
Pair    | 28996      | 28996      | 28996      |   0.0 | 98.95
Neigh   | 261.57     | 261.57     | 261.57     |   0.0 |  0.89
Comm    | 10.843     | 10.843     | 10.843     |   0.0 |  0.04
Output  | 11.448     | 11.448     | 11.448     |   0.0 |  0.04
Modify  | 19.532     | 19.532     | 19.532     |   0.0 |  0.07
Other   |            | 3.97       |            |       |  0.01

Nlocal:            900 ave         900 max         900 min
Histogram: 1 0 0 0 0 0 0 0 0 0
Nghost:           2441 ave        2441 max        2441 min
Histogram: 1 0 0 0 0 0 0 0 0 0
Neighs:              0 ave           0 max           0 min
Histogram: 1 0 0 0 0 0 0 0 0 0
FullNghs:        64690 ave       64690 max       64690 min
Histogram: 1 0 0 0 0 0 0 0 0 0

Total # of neighbors = 64690
Ave neighs/atom = 71.877778
Neighbor list builds = 50000
Dangerous builds not checked
Total wall time: 8:10:22
