ITEM: TIMESTEP
0
ITEM: NUMBER OF ATOMS
32
ITEM: BOX BOUNDS xy xz yz pp pp pp
-4.0532350540161133e-03 6.4008854031562805e+00 0.0000000000000000e+00
-9.1640949249267578e-03 9.5385518074035645e+00 0.0000000000000000e+00
-4.7960281372070312e-02 2.0773346722126007e+01 4.0089565515518188e+00
ITEM: ATOMS id type xs ys zs fx fy fz
1 1 0.999986 0.622911 0.0597509 0 0 0.0242977
2 1 0.499986 0.622911 0.0597509 0 0 0.0242977
3 1 0.249986 0.122911 0.0597519 0 0 0.0242729
4 1 0.749986 0.122911 0.0597519 0 0 0.0242729
5 1 0.999986 0.441973 0.309753 0 0 0.00053978
6 1 0.249986 0.36679 0.184753 0 0 0.00442886
7 1 0.749986 0.36679 0.184753 0 0 0.00442886
8 1 0.499986 0.441973 0.309753 0 0 0.00053978
9 1 0.999986 0.866788 0.184753 0 0 0.00444412
10 1 0.249986 0.941973 0.309753 0 0 0.000492096
11 1 0.499986 0.866788 0.184753 0 0 0.00444412
12 1 0.749986 0.941973 0.309753 0 0 0.000492096
13 1 0.999986 0.261012 0.559749 0 0 6.48499e-05
14 1 0.499986 0.261012 0.559749 0 0 6.48499e-05
15 1 0.249986 0.76101 0.55975 0 0 5.34058e-05
16 1 0.749986 0.76101 0.55975 0 0 5.34058e-05
17 1 0.249986 0.185841 0.434752 0 0 -6.48499e-05
18 1 0.749986 0.185841 0.434752 0 0 -6.48499e-05
19 1 0.999986 0.685841 0.434752 0 0 -4.19617e-05
20 1 0.499986 0.685841 0.434752 0 0 -4.19617e-05
21 1 0.999986 0.0800535 0.809748 0 0 -0.00443649
22 1 0.249986 0.00487486 0.684748 0 0 -0.000526428
23 1 0.499986 0.0800535 0.809748 0 0 -0.00443649
24 1 0.749986 0.00487486 0.684748 0 0 -0.000526428
25 1 0.999986 0.504874 0.684749 0 0 -0.000547409
26 1 0.249986 0.580054 0.809748 0 0 -0.00442314
27 1 0.749986 0.580054 0.809748 0 0 -0.00442314
28 1 0.499986 0.504874 0.684749 0 0 -0.000547409
29 1 0.249986 0.823929 0.934749 0 0 -0.0242634
30 1 0.749986 0.823929 0.934749 0 0 -0.0242634
31 1 0.999986 0.323929 0.93475 0 0 -0.0242901
32 1 0.499986 0.323929 0.93475 0 0 -0.0242901
ITEM: TIMESTEP
1
ITEM: NUMBER OF ATOMS
32
ITEM: BOX BOUNDS xy xz yz pp pp pp
-4.0532350540161133e-03 6.4008854031562805e+00 0.0000000000000000e+00
-9.1640949249267578e-03 9.5385518074035645e+00 0.0000000000000000e+00
-4.7960281372070312e-02 2.0773346722126007e+01 4.0089565515518188e+00
ITEM: ATOMS id type xs ys zs fx fy fz
1 1 0.999986 0.622652 0.0601093 0 0 -0.00239754
2 1 0.499986 0.622652 0.0601093 0 0 -0.00239754
3 1 0.249986 0.122652 0.06011 0 0 -0.00242424
4 1 0.749986 0.122652 0.06011 0 0 -0.00242424
5 1 0.999986 0.441967 0.309761 0 0 0.00226402
6 1 0.249986 0.366743 0.184819 0 0 0.00956535
7 1 0.749986 0.366743 0.184819 0 0 0.00956535
8 1 0.499986 0.441967 0.309761 0 0 0.00226402
9 1 0.999986 0.866741 0.184819 0 0 0.00957298
10 1 0.249986 0.941967 0.309761 0 0 0.00226212
11 1 0.499986 0.866741 0.184819 0 0 0.00957298
12 1 0.749986 0.941967 0.309761 0 0 0.00226212
13 1 0.999986 0.261011 0.55975 0 0 -0.000257492
14 1 0.499986 0.261011 0.55975 0 0 -0.000257492
15 1 0.249986 0.761009 0.55975 0 0 -0.000259399
16 1 0.749986 0.761009 0.55975 0 0 -0.000259399
17 1 0.249986 0.185842 0.434751 0 0 0.000244141
18 1 0.749986 0.185842 0.434751 0 0 0.000244141
19 1 0.999986 0.685841 0.434751 0 0 0.000246048
20 1 0.499986 0.685841 0.434751 0 0 0.000246048
21 1 0.999986 0.0801009 0.809683 0 0 -0.0095768
22 1 0.249986 0.00488048 0.68474 0 0 -0.00224113
23 1 0.499986 0.0801009 0.809683 0 0 -0.0095768
24 1 0.749986 0.00488048 0.68474 0 0 -0.00224113
25 1 0.999986 0.50488 0.684741 0 0 -0.00225449
26 1 0.249986 0.580101 0.809683 0 0 -0.0095768
27 1 0.749986 0.580101 0.809683 0 0 -0.0095768
28 1 0.499986 0.50488 0.684741 0 0 -0.00225449
29 1 0.249986 0.824188 0.934391 0 0 0.00242615
30 1 0.749986 0.824188 0.934391 0 0 0.00242615
31 1 0.999986 0.324189 0.934392 0 0 0.00240707
32 1 0.499986 0.324189 0.934392 0 0 0.00240707
ITEM: TIMESTEP
2
ITEM: NUMBER OF ATOMS
32
ITEM: BOX BOUNDS xy xz yz pp pp pp
-4.0532350540161133e-03 6.4008854031562805e+00 0.0000000000000000e+00
-9.1640949249267578e-03 9.5385518074035645e+00 0.0000000000000000e+00
-4.7960281372070312e-02 2.0773346722126007e+01 4.0089565515518188e+00
ITEM: ATOMS id type xs ys zs fx fy fz
1 1 0.999986 0.62261 0.0601669 0 0 -0.000637054
2 1 0.499986 0.62261 0.0601669 0 0 -0.000637054
3 1 0.249986 0.12261 0.0601668 0 0 -0.000629425
4 1 0.749986 0.12261 0.0601668 0 0 -0.000629425
5 1 0.999986 0.441924 0.30982 0 0 0.00574875
6 1 0.249986 0.366553 0.185081 0 0 -0.00119019
7 1 0.749986 0.366553 0.185081 0 0 -0.00119019
8 1 0.499986 0.441924 0.30982 0 0 0.00574875
9 1 0.999986 0.866551 0.185081 0 0 -0.00120163
10 1 0.249986 0.941925 0.30982 0 0 0.0057621
11 1 0.499986 0.866551 0.185081 0 0 -0.00120163
12 1 0.749986 0.941925 0.30982 0 0 0.0057621
13 1 0.999986 0.261015 0.559744 0 0 -0.00154877
14 1 0.499986 0.261015 0.559744 0 0 -0.00154877
15 1 0.249986 0.761014 0.559744 0 0 -0.0015564
16 1 0.749986 0.761014 0.559744 0 0 -0.0015564
17 1 0.249986 0.185837 0.434757 0 0 0.00156593
18 1 0.749986 0.185837 0.434757 0 0 0.00156593
19 1 0.999986 0.685837 0.434757 0 0 0.0015583
20 1 0.499986 0.685837 0.434757 0 0 0.0015583
21 1 0.999986 0.0802909 0.80942 0 0 0.00121307
22 1 0.249986 0.00492314 0.684682 0 0 -0.00578117
23 1 0.499986 0.0802909 0.80942 0 0 0.00121307
24 1 0.749986 0.00492314 0.684682 0 0 -0.00578117
25 1 0.999986 0.504923 0.684681 0 0 -0.0057621
26 1 0.249986 0.580291 0.80942 0 0 0.00120926
27 1 0.749986 0.580291 0.80942 0 0 0.00120926
28 1 0.499986 0.504923 0.684681 0 0 -0.0057621
29 1 0.249986 0.824229 0.934335 0 0 0.000623703
30 1 0.749986 0.824229 0.934335 0 0 0.000623703
31 1 0.999986 0.32423 0.934334 0 0 0.00062561
32 1 0.499986 0.32423 0.934334 0 0 0.00062561
ITEM: TIMESTEP
3
ITEM: NUMBER OF ATOMS
32
ITEM: BOX BOUNDS xy xz yz pp pp pp
-4.0532350540161133e-03 6.4008854031562805e+00 0.0000000000000000e+00
-9.1640949249267578e-03 9.5385518074035645e+00 0.0000000000000000e+00
-4.7960281372070312e-02 2.0773346722126007e+01 4.0089565515518188e+00
ITEM: ATOMS id type xs ys zs fx fy fz
1 1 0.999986 0.622608 0.0601702 0 0 0.000738144
2 1 0.499986 0.622608 0.0601702 0 0 0.000738144
3 1 0.249986 0.122608 0.06017 0 0 0.00075531
4 1 0.749986 0.122608 0.06017 0 0 0.00075531
5 1 0.999986 0.4418 0.309991 0 0 -0.000585556
6 1 0.249986 0.36651 0.18514 0 0 -3.8147e-06
7 1 0.749986 0.36651 0.18514 0 0 -3.8147e-06
8 1 0.499986 0.4418 0.309991 0 0 -0.000585556
9 1 0.999986 0.866508 0.18514 0 0 -9.53674e-06
10 1 0.249986 0.941801 0.30999 0 0 -0.000583649
11 1 0.499986 0.866508 0.18514 0 0 -9.53674e-06
12 1 0.749986 0.941801 0.30999 0 0 -0.000583649
13 1 0.999986 0.261046 0.559702 0 0 -0.00228119
14 1 0.499986 0.261046 0.559702 0 0 -0.00228119
15 1 0.249986 0.761045 0.559702 0 0 -0.00227928
16 1 0.749986 0.761045 0.559702 0 0 -0.00227928
17 1 0.249986 0.185806 0.4348 0 0 0.00227737
18 1 0.749986 0.185806 0.4348 0 0 0.00227737
19 1 0.999986 0.685806 0.4348 0 0 0.00227928
20 1 0.499986 0.685806 0.4348 0 0 0.00227928
21 1 0.999986 0.0803334 0.809362 0 0 -1.14441e-05
22 1 0.249986 0.0050468 0.684511 0 0 0.000593185
23 1 0.499986 0.0803334 0.809362 0 0 -1.14441e-05
24 1 0.749986 0.0050468 0.684511 0 0 0.000593185
25 1 0.999986 0.505047 0.684511 0 0 0.000595093
26 1 0.249986 0.580334 0.809362 0 0 -1.14441e-05
27 1 0.749986 0.580334 0.809362 0 0 -1.14441e-05
28 1 0.499986 0.505047 0.684511 0 0 0.000595093
29 1 0.249986 0.824232 0.934331 0 0 -0.000740051
30 1 0.749986 0.824232 0.934331 0 0 -0.000740051
31 1 0.999986 0.324233 0.934331 0 0 -0.000732422
32 1 0.499986 0.324233 0.934331 0 0 -0.000732422
ITEM: TIMESTEP
4
ITEM: NUMBER OF ATOMS
32
ITEM: BOX BOUNDS xy xz yz pp pp pp
-4.0532350540161133e-03 6.4008854031562805e+00 0.0000000000000000e+00
-9.1640949249267578e-03 9.5385518074035645e+00 0.0000000000000000e+00
-4.7960281372070312e-02 2.0773346722126007e+01 4.0089565515518188e+00
ITEM: ATOMS id type xs ys zs fx fy fz
1 1 0.999986 0.6226 0.0601808 0 0 5.34058e-05
2 1 0.499986 0.6226 0.0601808 0 0 5.34058e-05
3 1 0.249986 0.1226 0.0601808 0 0 5.14984e-05
4 1 0.749986 0.1226 0.0601808 0 0 5.14984e-05
5 1 0.999986 0.441795 0.309998 0 0 -5.72205e-06
6 1 0.249986 0.366506 0.185145 0 0 0.000196457
7 1 0.749986 0.366506 0.185145 0 0 0.000196457
8 1 0.499986 0.441795 0.309998 0 0 -5.72205e-06
9 1 0.999986 0.866504 0.185145 0 0 0.000200272
10 1 0.249986 0.941796 0.309998 0 0 -5.72205e-06
11 1 0.499986 0.866504 0.185145 0 0 0.000200272
12 1 0.749986 0.941796 0.309998 0 0 -5.72205e-06
13 1 0.999986 0.261072 0.559666 0 0 0.000253677
14 1 0.499986 0.261072 0.559666 0 0 0.000253677
15 1 0.249986 0.761071 0.559666 0 0 0.000259399
16 1 0.749986 0.761071 0.559666 0 0 0.000259399
17 1 0.249986 0.185781 0.434836 0 0 -0.000253677
18 1 0.749986 0.185781 0.434836 0 0 -0.000253677
19 1 0.999986 0.68578 0.434835 0 0 -0.000249863
20 1 0.499986 0.68578 0.434835 0 0 -0.000249863
21 1 0.999986 0.0803374 0.809356 0 0 -0.000198364
22 1 0.249986 0.00505214 0.684503 0 0 1.14441e-05
23 1 0.499986 0.0803374 0.809356 0 0 -0.000198364
24 1 0.749986 0.00505214 0.684503 0 0 1.14441e-05
25 1 0.999986 0.505052 0.684504 0 0 3.8147e-06
26 1 0.249986 0.580338 0.809356 0 0 -0.000207901
27 1 0.749986 0.580338 0.809356 0 0 -0.000207901
28 1 0.499986 0.505052 0.684504 0 0 3.8147e-06
29 1 0.249986 0.824239 0.934321 0 0 -6.29425e-05
30 1 0.749986 0.824239 0.934321 0 0 -6.29425e-05
31 1 0.999986 0.32424 0.934321 0 0 -4.57764e-05
32 1 0.499986 0.32424 0.934321 0 0 -4.57764e-05
ITEM: TIMESTEP
5
ITEM: NUMBER OF ATOMS
32
ITEM: BOX BOUNDS xy xz yz pp pp pp
-4.0532350540161133e-03 6.4008854031562805e+00 0.0000000000000000e+00
-9.1640949249267578e-03 9.5385518074035645e+00 0.0000000000000000e+00
-4.7960281372070312e-02 2.0773346722126007e+01 4.0089565515518188e+00
ITEM: ATOMS id type xs ys zs fx fy fz
1 1 0.999986 0.6226 0.0601808 0 0 5.34058e-05
2 1 0.499986 0.6226 0.0601808 0 0 5.34058e-05
3 1 0.249986 0.1226 0.0601808 0 0 5.14984e-05
4 1 0.749986 0.1226 0.0601808 0 0 5.14984e-05
5 1 0.999986 0.441795 0.309998 0 0 -5.72205e-06
6 1 0.249986 0.366506 0.185145 0 0 0.000196457
7 1 0.749986 0.366506 0.185145 0 0 0.000196457
8 1 0.499986 0.441795 0.309998 0 0 -5.72205e-06
9 1 0.999986 0.866504 0.185145 0 0 0.000200272
10 1 0.249986 0.941796 0.309998 0 0 -5.72205e-06
11 1 0.499986 0.866504 0.185145 0 0 0.000200272
12 1 0.749986 0.941796 0.309998 0 0 -5.72205e-06
13 1 0.999986 0.261072 0.559666 0 0 0.000253677
14 1 0.499986 0.261072 0.559666 0 0 0.000253677
15 1 0.249986 0.761071 0.559666 0 0 0.000259399
16 1 0.749986 0.761071 0.559666 0 0 0.000259399
17 1 0.249986 0.185781 0.434836 0 0 -0.000253677
18 1 0.749986 0.185781 0.434836 0 0 -0.000253677
19 1 0.999986 0.68578 0.434835 0 0 -0.000249863
20 1 0.499986 0.68578 0.434835 0 0 -0.000249863
21 1 0.999986 0.0803374 0.809356 0 0 -0.000198364
22 1 0.249986 0.00505214 0.684503 0 0 1.14441e-05
23 1 0.499986 0.0803374 0.809356 0 0 -0.000198364
24 1 0.749986 0.00505214 0.684503 0 0 1.14441e-05
25 1 0.999986 0.505052 0.684504 0 0 3.8147e-06
26 1 0.249986 0.580338 0.809356 0 0 -0.000207901
27 1 0.749986 0.580338 0.809356 0 0 -0.000207901
28 1 0.499986 0.505052 0.684504 0 0 3.8147e-06
29 1 0.249986 0.824239 0.934321 0 0 -6.29425e-05
30 1 0.749986 0.824239 0.934321 0 0 -6.29425e-05
31 1 0.999986 0.32424 0.934321 0 0 -4.57764e-05
32 1 0.499986 0.32424 0.934321 0 0 -4.57764e-05
