ITEM: TIMESTEP
0
ITEM: NUMBER OF ATOMS
56
ITEM: BOX BOUNDS xy xz yz pp pp pp
-1.5544167160987854e+00 1.2203788340091705e+01 0.0000000000000000e+00
-8.4733366966247559e-03 5.5348814725875854e+00 -1.5357282161712646e+00
-2.9168844223022461e-02 1.9049128890037537e+01 0.0000000000000000e+00
ITEM: ATOMS id type xs ys zs fx fy fz
1 1 0.566703 4.41887e-05 0.132366 0 0.0221481 0.517529
2 1 0.316704 0.166624 0.132366 0 -0.0221825 0.517548
3 1 0.222062 2.39879e-05 0.275225 0 0.000865936 -0.00129509
4 1 0.972061 0.166644 0.275225 0 -0.00088501 -0.001297
5 1 0.877367 1.9421e-05 0.418082 0 4.57764e-05 0.00019455
6 1 0.0667035 4.41295e-05 0.132366 0 0.0221691 0.517532
7 1 0.988996 0.500074 0.0609403 0 -0.0716019 0.536747
8 1 0.816704 0.166623 0.132366 0 -0.0221767 0.517536
9 1 0.738998 0.666593 0.0609403 0 0.0716171 0.536764
10 1 0.722063 2.39872e-05 0.275225 0 0.000864029 -0.00128555
11 1 0.627366 0.166647 0.418082 0 -4.19617e-05 0.000188828
12 1 0.532661 2.47556e-05 0.560942 0 -2.47955e-05 -8.2016e-05
13 1 0.282662 0.166643 0.560942 0 1.52588e-05 -8.58307e-05
14 1 0.187964 2.39811e-05 0.703801 0 -0.000225067 0.000888824
15 1 0.937964 0.166644 0.703801 0 0.00019455 0.00088501
16 1 0.84328 2.63435e-05 0.846651 0 0.0051651 -0.00294876
17 1 0.644399 0.500026 0.203802 0 0.0051899 0.00295639
18 1 0.472062 0.166645 0.275225 0 -0.000898361 -0.00128937
19 1 0.3944 0.66664 0.203802 0 -0.00514984 0.00296402
20 1 0.377367 2.01694e-05 0.418082 0 2.86102e-05 0.00019455
21 1 0.299715 0.500023 0.346651 0 -0.000198364 -0.000871658
22 1 0.127367 0.166648 0.418082 0 -4.57764e-05 0.000192642
23 1 0.0497155 0.666642 0.346651 0 0.000234604 -0.000888824
24 1 0.0326614 2.49573e-05 0.560941 0 -2.86102e-05 -7.43866e-05
25 1 0.955017 0.500025 0.489511 0 -2.09808e-05 6.86646e-05
26 1 0.782663 0.166643 0.560941 0 1.52588e-05 -6.86646e-05
27 1 0.705018 0.666642 0.489511 0 2.67029e-05 9.15527e-05
28 1 0.488996 0.500073 0.0609404 0 -0.0715828 0.536737
29 1 0.238996 0.666593 0.0609403 0 0.0716133 0.536745
30 1 0.1444 0.500026 0.203802 0 0.00517273 0.0029583
31 1 0.8944 0.666641 0.203802 0 -0.00517845 0.00296593
32 1 0.799716 0.500024 0.346651 0 -0.00022316 -0.000886917
33 1 0.593279 0.166641 0.846652 0 -0.0051651 -0.002985
34 1 0.498683 7.47473e-05 0.989512 0 -0.0716228 -0.53673
35 1 0.248683 0.166594 0.989513 0 0.0715942 -0.536753
36 1 0.687963 2.44315e-05 0.703801 0 -0.000230789 0.000883102
37 1 0.610311 0.50002 0.632371 0 4.00543e-05 -0.000207901
38 1 0.437964 0.166643 0.703801 0 0.000204086 0.000892639
39 1 0.360312 0.666647 0.632371 0 -3.62396e-05 -0.000192642
40 1 0.343279 2.63314e-05 0.846651 0 0.00517273 -0.00296402
41 1 0.265617 0.500023 0.775228 0 0.00087738 0.00129509
42 1 0.093279 0.166641 0.846651 0 -0.00517273 -0.00297165
43 1 0.0156172 0.666644 0.775228 0 -0.000869751 0.00128555
44 1 0.998683 7.37033e-05 0.989512 0 -0.0715961 -0.536737
45 1 0.920976 0.500043 0.918087 0 0.0221672 -0.517527
46 1 0.549715 0.666643 0.346651 0 0.000236511 -0.000886917
47 1 0.455017 0.500025 0.489511 0 -1.71661e-05 7.43866e-05
48 1 0.205017 0.666642 0.489511 0 3.05176e-05 7.24792e-05
49 1 0.110312 0.500019 0.632371 0 5.34058e-05 -0.00018692
50 1 0.860313 0.666647 0.63237 0 -2.28882e-05 -0.000169754
51 1 0.765618 0.500022 0.775228 0 0.000894547 0.00129128
52 1 0.748681 0.166594 0.989513 0 0.0716038 -0.536753
53 1 0.670975 0.666624 0.918087 0 -0.0221767 -0.517555
54 1 0.515617 0.666643 0.775228 0 -0.000873566 0.00129318
55 1 0.420976 0.500044 0.918087 0 0.0221863 -0.51755
56 1 0.170976 0.666624 0.918087 0 -0.0221786 -0.517532
ITEM: TIMESTEP
1
ITEM: NUMBER OF ATOMS
56
ITEM: BOX BOUNDS xy xz yz pp pp pp
-1.5544167160987854e+00 1.2203788340091705e+01 0.0000000000000000e+00
-8.4733366966247559e-03 5.5348814725875854e+00 -1.5357282161712646e+00
-2.9168844223022461e-02 1.9049128890037537e+01 0.0000000000000000e+00
ITEM: ATOMS id type xs ys zs fx fy fz
1 1 0.567338 0.000788545 0.13742 0 -0.00348091 0.0129566
2 1 0.317339 0.165878 0.13742 0 0.00348473 0.0129547
3 1 0.22206 5.30903e-05 0.275212 0 -0.0174637 0.0976486
4 1 0.97206 0.166615 0.275212 0 0.0174561 0.0976486
5 1 0.877367 2.09595e-05 0.418084 0 -0.000772476 -0.00109291
6 1 0.0673385 0.000789191 0.13742 0 -0.00349236 0.0129642
7 1 0.989655 0.497668 0.0661817 0 -0.0665321 -0.0128822
8 1 0.817339 0.165878 0.13742 0 0.00348854 0.0129604
9 1 0.739656 0.669 0.0661818 0 0.0665398 -0.012888
10 1 0.722061 5.30255e-05 0.275212 0 -0.0174541 0.0976429
11 1 0.627366 0.166646 0.418084 0 0.000789642 -0.00109291
12 1 0.532661 2.39223e-05 0.560941 0 0.00012207 0.00279808
13 1 0.282661 0.166643 0.560941 0 -0.000133514 0.0028019
14 1 0.187965 1.6417e-05 0.70381 0 -0.00240898 -0.00436592
15 1 0.937965 0.166651 0.70381 0 0.00240898 -0.00435638
16 1 0.843277 0.000199933 0.846622 0 0.000827789 -0.121655
17 1 0.644403 0.5002 0.20383 0 0.000823975 0.12166
18 1 0.47206 0.166615 0.275212 0 0.0174446 0.0976543
19 1 0.394404 0.666467 0.20383 0 -0.000837326 0.121664
20 1 0.377368 2.1131e-05 0.418084 0 -0.000793457 -0.00109863
21 1 0.299714 0.500017 0.346643 0 -0.00240517 0.00436211
22 1 0.127367 0.166646 0.418084 0 0.000778198 -0.001091
23 1 0.0497144 0.66665 0.346643 0 0.00242233 0.0043602
24 1 0.0326613 2.39957e-05 0.560941 0 0.0001297 0.00279999
25 1 0.955017 0.500024 0.489512 0 0.0001297 -0.0028038
26 1 0.782662 0.166643 0.560941 0 -0.0001297 0.00280571
27 1 0.705019 0.666643 0.489512 0 -0.000123978 -0.00278664
28 1 0.489655 0.497667 0.0661817 0 -0.0665302 -0.0128803
29 1 0.239655 0.668999 0.0661817 0 0.0665359 -0.0128784
30 1 0.144404 0.5002 0.20383 0 0.000839233 0.121662
31 1 0.894404 0.666467 0.20383 0 -0.000839233 0.121664
32 1 0.799715 0.500017 0.346643 0 -0.00241852 0.00436401
33 1 0.593275 0.166467 0.846622 0 -0.000825882 -0.121681
34 1 0.498025 -0.00233236 0.984271 0 -0.0665359 0.0128784
35 1 0.248025 0.169 0.984271 0 0.0665321 0.0128803
36 1 0.687964 1.66751e-05 0.70381 0 -0.00241661 -0.00435638
37 1 0.61031 0.500021 0.632369 0 -0.00078392 0.00107956
38 1 0.437965 0.16665 0.70381 0 0.00241852 -0.0043602
39 1 0.360312 0.666646 0.632369 0 0.000785828 0.00109863
40 1 0.343276 0.000200177 0.846622 0 0.000835419 -0.121662
41 1 0.265619 0.500053 0.77524 0 -0.0174561 -0.0976429
42 1 0.0932753 0.166467 0.846622 0 -0.000833511 -0.121664
43 1 0.0156188 0.666614 0.77524 0 0.0174522 -0.0976486
44 1 0.998025 -0.00233251 0.984271 0 -0.0665359 0.012888
45 1 0.920341 0.500788 0.913033 0 -0.00348091 -0.0129414
46 1 0.549714 0.666651 0.346643 0 0.00241852 0.0043602
47 1 0.455017 0.500024 0.489512 0 0.0001297 -0.00280952
48 1 0.205018 0.666643 0.489512 0 -0.00012207 -0.00280571
49 1 0.110312 0.500021 0.632369 0 -0.000782013 0.00109673
50 1 0.860313 0.666646 0.632369 0 0.000780106 0.00109863
51 1 0.76562 0.500052 0.775241 0 -0.0174522 -0.0976429
52 1 0.748023 0.169 0.984271 0 0.066534 0.0128765
53 1 0.67034 0.665878 0.913033 0 0.00348282 -0.0129719
54 1 0.515619 0.666614 0.775241 0 0.017458 -0.0976486
55 1 0.420341 0.500789 0.913033 0 -0.00349426 -0.0129623
56 1 0.170341 0.665878 0.913033 0 0.00348663 -0.0129604
ITEM: TIMESTEP
2
ITEM: NUMBER OF ATOMS
56
ITEM: BOX BOUNDS xy xz yz pp pp pp
-1.5544167160987854e+00 1.2203788340091705e+01 0.0000000000000000e+00
-8.4733366966247559e-03 5.5348814725875854e+00 -1.5357282161712646e+00
-2.9168844223022461e-02 1.9049128890037537e+01 0.0000000000000000e+00
ITEM: ATOMS id type xs ys zs fx fy fz
1 1 0.567457 0.000560669 0.138365 0 -0.0249004 0.0349331
2 1 0.317457 0.166106 0.138365 0 0.0248947 0.0349407
3 1 0.222384 -0.0015322 0.277792 0 0.00781441 0.00475121
4 1 0.972384 0.168199 0.277792 0 -0.00780487 0.00476074
5 1 0.877364 -4.91334e-05 0.418055 0 -0.00784683 0.0442047
6 1 0.0674574 0.000560358 0.138365 0 -0.0248814 0.0349216
7 1 0.989691 0.491328 0.0664664 0 -0.00978088 0.00755882
8 1 0.817458 0.166106 0.138365 0 0.0249004 0.0349255
9 1 0.739692 0.67534 0.0664665 0 0.00977516 0.00754356
10 1 0.722386 -0.00153141 0.277792 0 0.00779343 0.00476456
11 1 0.627363 0.166717 0.418055 0 0.00784874 0.0441933
12 1 0.53267 3.49283e-05 0.561015 0 -0.00230598 -0.0044899
13 1 0.282671 0.166631 0.561015 0 0.00232887 -0.00449371
14 1 0.187951 -0.000203644 0.703696 0 -0.00990868 -0.0667782
15 1 0.937951 0.166871 0.703696 0 0.00989532 -0.0667915
16 1 0.842872 0.00029595 0.843403 0 -0.00979805 0.0230923
17 1 0.644807 0.500296 0.20705 0 -0.00980186 -0.0230827
18 1 0.472384 0.168198 0.277792 0 -0.00779152 0.00475883
19 1 0.394808 0.66637 0.20705 0 0.00980186 -0.0230885
20 1 0.377364 -5.09395e-05 0.418055 0 -0.00782776 0.044199
21 1 0.299729 0.499797 0.346757 0 -0.00991058 0.0667839
22 1 0.127364 0.166717 0.418055 0 0.00785446 0.0441952
23 1 0.0497287 0.666872 0.346757 0 0.00989532 0.0667877
24 1 0.0326706 3.56805e-05 0.561015 0 -0.00231552 -0.00448036
25 1 0.955008 0.500036 0.489438 0 -0.00231361 0.00449181
26 1 0.782672 0.166632 0.561015 0 0.00231361 -0.00448608
27 1 0.705009 0.666632 0.489438 0 0.00231743 0.00447655
28 1 0.48969 0.491328 0.0664665 0 -0.00977135 0.00753593
29 1 0.239691 0.67534 0.0664666 0 0.00977325 0.00754166
30 1 0.144808 0.500297 0.20705 0 -0.00982475 -0.0230827
31 1 0.894808 0.66637 0.20705 0 0.00980568 -0.0230885
32 1 0.79973 0.499796 0.346757 0 -0.00989342 0.066782
33 1 0.592871 0.166371 0.843403 0 0.00979233 0.0231018
34 1 0.497989 -0.00867267 0.983986 0 -0.00978088 -0.00755501
35 1 0.247989 0.17534 0.983986 0 0.00977516 -0.00754738
36 1 0.687949 -0.000204103 0.703696 0 -0.00990295 -0.0667915
37 1 0.610314 0.49995 0.632397 0 -0.00784874 -0.0441837
38 1 0.437951 0.166871 0.703696 0 0.00989914 -0.0667896
39 1 0.360316 0.666718 0.632398 0 0.00784492 -0.0442142
40 1 0.342871 0.000296919 0.843403 0 -0.00980759 0.0230846
41 1 0.265295 0.498468 0.772661 0 0.00780487 -0.00476074
42 1 0.0928708 0.16637 0.843403 0 0.00979996 0.0230961
43 1 0.0152947 0.668199 0.772661 0 -0.00780678 -0.00475311
44 1 0.997989 -0.00867271 0.983986 0 -0.00976753 -0.00754166
45 1 0.920222 0.50056 0.912088 0 -0.0249004 -0.0349407
46 1 0.549728 0.666872 0.346757 0 0.0098896 0.0667915
47 1 0.455008 0.500036 0.489438 0 -0.00232124 0.00449371
48 1 0.205008 0.666632 0.489438 0 0.0023098 0.0044899
49 1 0.110315 0.49995 0.632398 0 -0.00785065 -0.0442028
50 1 0.860316 0.666717 0.632398 0 0.00784874 -0.0441933
51 1 0.765296 0.498468 0.772661 0 0.00780106 -0.00477409
52 1 0.747987 0.17534 0.983986 0 0.00977898 -0.00755119
53 1 0.670221 0.666106 0.912087 0 0.0248985 -0.0349255
54 1 0.515295 0.668199 0.772661 0 -0.00779915 -0.00476646
55 1 0.420222 0.50056 0.912087 0 -0.0248871 -0.0349159
56 1 0.170222 0.666106 0.912088 0 0.0248947 -0.0349312
ITEM: TIMESTEP
3
ITEM: NUMBER OF ATOMS
56
ITEM: BOX BOUNDS xy xz yz pp pp pp
-1.5544167160987854e+00 1.2203788340091705e+01 0.0000000000000000e+00
-8.4733366966247559e-03 5.5348814725875854e+00 -1.5357282161712646e+00
-2.9168844223022461e-02 1.9049128890037537e+01 0.0000000000000000e+00
ITEM: ATOMS id type xs ys zs fx fy fz
1 1 0.567638 -0.00213092 0.139809 0 -0.00461197 -0.016573
2 1 0.317639 0.168797 0.139809 0 0.00461578 -0.0165806
3 1 0.222534 -0.00136135 0.278985 0 -0.00526237 0.0101662
4 1 0.972534 0.168029 0.278986 0 0.00524521 0.0101509
5 1 0.877531 -0.00089663 0.419384 0 -0.00208092 0.0156193
6 1 0.0676387 -0.00212963 0.139809 0 -0.00464439 -0.0165539
7 1 0.989734 0.487728 0.0668115 0 0.00428963 -0.0284328
8 1 0.81764 0.168798 0.139809 0 0.00460815 -0.0165634
9 1 0.739735 0.678939 0.066811 0 -0.00426865 -0.0284195
10 1 0.722535 -0.00136239 0.278986 0 -0.0052433 0.0101509
11 1 0.62753 0.167566 0.419384 0 0.00205994 0.0156269
12 1 0.532657 -0.000201276 0.560909 0 -0.0101299 -0.0179501
13 1 0.282657 0.166869 0.560909 0 0.0101166 -0.0179501
14 1 0.18769 -0.00132733 0.701624 0 0.00044632 0.00310516
15 1 0.93769 0.167993 0.701624 0 -0.000444412 0.00310707
16 1 0.842796 -0.000687641 0.842794 0 -4.57764e-05 -0.00439262
17 1 0.644884 0.499312 0.207659 0 -4.19617e-05 0.00438118
18 1 0.472534 0.168029 0.278986 0 0.00523758 0.0101471
19 1 0.394885 0.667354 0.207659 0 5.14984e-05 0.00438499
20 1 0.377531 -0.00089725 0.419384 0 -0.0020771 0.0156231
21 1 0.299989 0.498673 0.348829 0 0.000444412 -0.00310516
22 1 0.127531 0.167566 0.419384 0 0.00206566 0.0156231
23 1 0.0499891 0.667994 0.348829 0 -0.000440598 -0.00311089
24 1 0.0326573 -0.000201243 0.560909 0 -0.0101318 -0.0179539
25 1 0.955021 0.499799 0.489544 0 -0.010128 0.0179558
26 1 0.782658 0.166868 0.560909 0 0.0101318 -0.0179539
27 1 0.705023 0.666869 0.489544 0 0.0101318 0.017952
28 1 0.489734 0.48773 0.0668109 0 0.00425911 -0.0284061
29 1 0.239734 0.678938 0.0668111 0 -0.00427055 -0.0284157
30 1 0.144885 0.499311 0.207659 0 -1.90735e-05 0.00438499
31 1 0.894885 0.667354 0.207659 0 5.34058e-05 0.00438309
32 1 0.79999 0.498674 0.348829 0 0.000442505 -0.00310516
33 1 0.592794 0.167354 0.842794 0 4.95911e-05 -0.00439453
34 1 0.497946 -0.0122722 0.983641 0 0.00429153 0.0284405
35 1 0.247945 0.178938 0.983642 0 -0.00427628 0.0284233
36 1 0.687689 -0.00132749 0.701624 0 0.000448227 0.00311279
37 1 0.610147 0.499102 0.631069 0 -0.00206184 -0.0156345
38 1 0.43769 0.167994 0.701624 0 -0.000444412 0.00310135
39 1 0.360149 0.667565 0.631069 0 0.00206947 -0.0156155
40 1 0.342795 -0.000687373 0.842794 0 -3.8147e-05 -0.00438881
41 1 0.265145 0.498638 0.771467 0 -0.00526428 -0.0101566
42 1 0.0927943 0.167354 0.842794 0 4.95911e-05 -0.00438881
43 1 0.0151447 0.668028 0.771467 0 0.00525475 -0.0101547
44 1 0.997946 -0.0122708 0.983642 0 0.00426865 0.0284119
45 1 0.920041 0.497869 0.910644 0 -0.00461006 0.0165768
46 1 0.549989 0.667994 0.348829 0 -0.000432968 -0.00310707
47 1 0.455021 0.499798 0.489544 0 -0.0101128 0.0179501
48 1 0.205022 0.666869 0.489544 0 0.0101395 0.0179462
49 1 0.110148 0.499102 0.631069 0 -0.00205803 -0.0156116
50 1 0.860149 0.667565 0.631069 0 0.00205803 -0.0156288
51 1 0.765146 0.498638 0.771467 0 -0.00525856 -0.0101337
52 1 0.747944 0.178939 0.983641 0 -0.00427628 0.0284233
53 1 0.67004 0.668798 0.910644 0 0.00461578 0.0165634
54 1 0.515145 0.668029 0.771467 0 0.00523949 -0.0101414
55 1 0.42004 0.49787 0.910644 0 -0.00462914 0.0165386
56 1 0.17004 0.668798 0.910644 0 0.0046196 0.016573
ITEM: TIMESTEP
4
ITEM: NUMBER OF ATOMS
56
ITEM: BOX BOUNDS xy xz yz pp pp pp
-1.5544167160987854e+00 1.2203788340091705e+01 0.0000000000000000e+00
-8.4733366966247559e-03 5.5348814725875854e+00 -1.5357282161712646e+00
-2.9168844223022461e-02 1.9049128890037537e+01 0.0000000000000000e+00
ITEM: ATOMS id type xs ys zs fx fy fz
1 1 0.567627 -0.00272188 0.139721 0 0.00315285 0.00259781
2 1 0.317628 0.169388 0.139721 0 -0.00314713 0.00259972
3 1 0.222574 -0.00163283 0.279298 0 -0.000619888 0.00186157
4 1 0.972573 0.168299 0.279298 0 0.000621796 0.00186157
5 1 0.877583 -0.00111768 0.419802 0 -0.003685 -5.72205e-06
6 1 0.0676277 -0.0027222 0.139721 0 0.00315475 0.00260544
7 1 0.989682 0.48752 0.0663948 0 0.00397491 0.000497818
8 1 0.817628 0.169389 0.13972 0 -0.00314331 0.00260162
9 1 0.739683 0.679149 0.0663945 0 -0.00397873 0.000494003
10 1 0.722575 -0.00163304 0.279298 0 -0.000614166 0.00186157
11 1 0.627582 0.167786 0.419802 0 0.00368881 0
12 1 0.532619 -0.000794079 0.560605 0 -0.00572586 -0.00142097
13 1 0.282619 0.167462 0.560605 0 0.00572777 -0.00141716
14 1 0.187664 -0.00144213 0.701417 0 0.000411987 0.000879288
15 1 0.937664 0.168108 0.701417 0 -0.000400543 0.00087738
16 1 0.842777 -0.0008124 0.842647 0 -0.00050354 0.00403976
17 1 0.644902 0.499187 0.207806 0 -0.000494003 -0.00405884
18 1 0.472573 0.168299 0.279298 0 0.000621796 0.00186157
19 1 0.394903 0.667479 0.207806 0 0.000494003 -0.00405312
20 1 0.377583 -0.00111794 0.419801 0 -0.00369072 -5.72205e-06
21 1 0.300015 0.498558 0.349036 0 0.000417709 -0.00087738
22 1 0.127583 0.167786 0.419802 0 0.003685 -3.8147e-06
23 1 0.0500151 0.668109 0.349036 0 -0.000413895 -0.000883102
24 1 0.0326192 -0.000794241 0.560606 0 -0.00572968 -0.00142288
25 1 0.955059 0.499206 0.489847 0 -0.00574112 0.00140953
26 1 0.78262 0.167461 0.560606 0 0.00574112 -0.00140572
27 1 0.705061 0.667462 0.489848 0 0.00572014 0.00141716
28 1 0.489681 0.487519 0.0663945 0 0.00397873 0.000497818
29 1 0.239682 0.679148 0.0663947 0 -0.00398254 0.000495911
30 1 0.144903 0.499188 0.207806 0 -0.000501633 -0.00404739
31 1 0.894903 0.667479 0.207806 0 0.000490189 -0.00404549
32 1 0.800016 0.498559 0.349036 0 0.000402451 -0.000879288
33 1 0.592776 0.167479 0.842647 0 0.000499725 0.00404739
34 1 0.497998 -0.0124807 0.984058 0 0.00396919 -0.000505447
35 1 0.247998 0.179148 0.984058 0 -0.00396729 -0.000495911
36 1 0.687663 -0.00144214 0.701417 0 0.000404358 0.000881195
37 1 0.610094 0.498882 0.630651 0 -0.00369072 7.62939e-06
38 1 0.437664 0.168109 0.701417 0 -0.000406265 0.000875473
39 1 0.360096 0.667786 0.630651 0 0.00368309 9.53674e-06
40 1 0.342776 -0.000811794 0.842647 0 -0.000509262 0.00405884
41 1 0.265106 0.498367 0.771155 0 -0.000606537 -0.00187111
42 1 0.0927759 0.167479 0.842647 0 0.000499725 0.0040493
43 1 0.0151055 0.668299 0.771155 0 0.000614166 -0.00186348
44 1 0.997998 -0.0124804 0.984058 0 0.00397682 -0.000497818
45 1 0.920052 0.497278 0.910732 0 0.00315094 -0.0025959
46 1 0.550015 0.668109 0.349036 0 -0.000408173 -0.000871658
47 1 0.45506 0.499206 0.489847 0 -0.0057354 0.00141335
48 1 0.20506 0.667462 0.489847 0 0.00573158 0.00142479
49 1 0.110096 0.498882 0.630651 0 -0.00369072 5.72205e-06
50 1 0.860097 0.667785 0.630652 0 0.0036869 5.72205e-06
51 1 0.765107 0.498367 0.771155 0 -0.000623703 -0.00186348
52 1 0.747996 0.179149 0.984058 0 -0.0039711 -0.000490189
53 1 0.670051 0.669389 0.910732 0 -0.0031414 -0.00259399
54 1 0.515105 0.6683 0.771155 0 0.000616074 -0.00186539
55 1 0.420052 0.497278 0.910732 0 0.00315475 -0.0025959
56 1 0.170052 0.669389 0.910732 0 -0.00314903 -0.00260162
ITEM: TIMESTEP
5
ITEM: NUMBER OF ATOMS
56
ITEM: BOX BOUNDS xy xz yz pp pp pp
-1.5544167160987854e+00 1.2203788340091705e+01 0.0000000000000000e+00
-8.4733366966247559e-03 5.5348814725875854e+00 -1.5357282161712646e+00
-2.9168844223022461e-02 1.9049128890037537e+01 0.0000000000000000e+00
ITEM: ATOMS id type xs ys zs fx fy fz
1 1 0.567636 -0.00242381 0.139795 0 0.000612259 -0.00144958
2 1 0.317637 0.169091 0.139795 0 -0.000617981 -0.00144768
3 1 0.222583 -0.00171358 0.279373 0 1.52588e-05 0.000259399
4 1 0.972583 0.16838 0.279373 0 -9.53674e-06 0.000255585
5 1 0.877586 -0.00151815 0.419825 0 -0.00106239 -0.000432968
6 1 0.067637 -0.00242402 0.139795 0 0.000600815 -0.00144958
7 1 0.989681 0.487926 0.0663862 0 0.0010891 -0.00154877
8 1 0.817638 0.169092 0.139795 0 -0.000621796 -0.0014534
9 1 0.739682 0.678742 0.0663858 0 -0.00108147 -0.00155449
10 1 0.722584 -0.00171314 0.279373 0 5.72205e-06 0.000257492
11 1 0.627585 0.168187 0.419825 0 0.00104713 -0.000436783
12 1 0.532611 -0.00143058 0.560544 0 -0.000860214 0.00211906
13 1 0.282612 0.168098 0.560545 0 0.000854492 0.00211334
14 1 0.187666 -0.00140532 0.701432 0 -0.00107384 0.000173569
15 1 0.937666 0.168072 0.701432 0 0.00106049 0.000188828
16 1 0.842792 -0.000872524 0.842763 0 0.00126266 -0.00187683
17 1 0.644888 0.499128 0.20769 0 0.00126076 0.00189972
18 1 0.472583 0.16838 0.279373 0 -1.14441e-05 0.000253677
19 1 0.394889 0.667538 0.20769 0 -0.00125313 0.00189209
20 1 0.377586 -0.00151899 0.419825 0 -0.00104713 -0.000434875
21 1 0.300013 0.498596 0.349021 0 -0.00108719 -0.000181198
22 1 0.127586 0.168186 0.419825 0 0.00105667 -0.000434875
23 1 0.0500132 0.668072 0.349021 0 0.00108147 -0.000175476
24 1 0.0326115 -0.00143116 0.560545 0 -0.0008564 0.00211334
25 1 0.955067 0.498568 0.489908 0 -0.000846863 -0.00211525
26 1 0.782613 0.1681 0.560545 0 0.000841141 0.00210762
27 1 0.705068 0.668098 0.489908 0 0.000864029 -0.0021019
28 1 0.48968 0.487926 0.066386 0 0.00107956 -0.00156593
29 1 0.239681 0.678741 0.0663861 0 -0.00107956 -0.0015564
30 1 0.144889 0.499128 0.20769 0 0.00125694 0.00188255
31 1 0.894889 0.667538 0.20769 0 -0.00124741 0.00188065
32 1 0.800014 0.498594 0.349021 0 -0.00106812 -0.00018692
33 1 0.59279 0.167539 0.842762 0 -0.00124931 -0.00187683
34 1 0.497999 -0.0120749 0.984067 0 0.00110435 0.00156784
35 1 0.247999 0.178742 0.984067 0 -0.00109482 0.00156021
36 1 0.687665 -0.00140613 0.701432 0 -0.00107574 0.000171661
37 1 0.610091 0.498481 0.630628 0 -0.00105476 0.000432968
38 1 0.437666 0.168073 0.701432 0 0.00106621 0.000190735
39 1 0.360093 0.668186 0.630628 0 0.00105476 0.000427246
40 1 0.342791 -0.000872501 0.842763 0 0.00127411 -0.00189209
41 1 0.265096 0.498287 0.77108 0 -5.72205e-06 -0.000236511
42 1 0.0927904 0.167539 0.842763 0 -0.00126076 -0.00188828
43 1 0.0150961 0.668379 0.77108 0 3.8147e-06 -0.000253677
44 1 0.997999 -0.0120738 0.984067 0 0.00108719 0.0015564
45 1 0.920043 0.497576 0.910658 0 0.000608444 0.00143433
46 1 0.550013 0.668073 0.349021 0 0.00107574 -0.000192642
47 1 0.455067 0.498569 0.489908 0 -0.000843048 -0.00210381
48 1 0.205067 0.668099 0.489908 0 0.000852585 -0.00211525
49 1 0.110093 0.498481 0.630628 0 -0.00105286 0.000425339
50 1 0.860094 0.668185 0.630628 0 0.00106812 0.000431061
51 1 0.765097 0.498286 0.77108 0 1.33514e-05 -0.000253677
52 1 0.747997 0.178743 0.984067 0 -0.001091 0.0015583
53 1 0.670042 0.669092 0.910658 0 -0.000617981 0.00143814
54 1 0.515096 0.66838 0.77108 0 -9.53674e-06 -0.000263214
55 1 0.420042 0.497576 0.910658 0 0.000598907 0.00143623
56 1 0.170042 0.669091 0.910658 0 -0.000616074 0.00145149
ITEM: TIMESTEP
6
ITEM: NUMBER OF ATOMS
56
ITEM: BOX BOUNDS xy xz yz pp pp pp
-1.5544167160987854e+00 1.2203788340091705e+01 0.0000000000000000e+00
-8.4733366966247559e-03 5.5348814725875854e+00 -1.5357282161712646e+00
-2.9168844223022461e-02 1.9049128890037537e+01 0.0000000000000000e+00
ITEM: ATOMS id type xs ys zs fx fy fz
1 1 0.567634 -0.00234288 0.139775 0 0.000236511 0.000427246
2 1 0.317635 0.16901 0.139775 0 -0.000236511 0.000415802
3 1 0.222585 -0.00172277 0.279388 0 0.000268936 -0.000703812
4 1 0.972584 0.16839 0.279387 0 -0.000274658 -0.00069809
5 1 0.877585 -0.00164375 0.419819 0 -4.19617e-05 0.000556946
6 1 0.0676345 -0.00234387 0.139775 0 0.00025177 0.00041008
7 1 0.989676 0.488054 0.0663535 0 0.000482559 0.00119209
8 1 0.817635 0.169011 0.139775 0 -0.000238419 0.000427246
9 1 0.739678 0.678615 0.066353 0 -0.000499725 0.00120354
10 1 0.722586 -0.00172292 0.279387 0 0.000276566 -0.000707626
11 1 0.627584 0.168311 0.419819 0 4.19617e-05 0.000549316
12 1 0.532615 -0.00157196 0.56058 0 2.86102e-05 0.000255585
13 1 0.282616 0.168239 0.56058 0 -2.67029e-05 0.000246048
14 1 0.187667 -0.00147617 0.701437 0 -0.000728607 -3.05176e-05
15 1 0.937667 0.168142 0.701438 0 0.0007267 -4.3869e-05
16 1 0.842789 -0.000791363 0.842739 0 0.000440598 -0.000185013
17 1 0.644891 0.49921 0.207714 0 0.000427246 0.000190735
18 1 0.472585 0.168389 0.279388 0 -0.000272751 -0.000703812
19 1 0.394892 0.667457 0.207714 0 -0.000425339 0.000188828
20 1 0.377586 -0.0016436 0.419819 0 -4.00543e-05 0.000564575
21 1 0.300013 0.498524 0.349015 0 -0.000724792 4.57764e-05
22 1 0.127585 0.168311 0.419819 0 4.19617e-05 0.000549316
23 1 0.0500125 0.668144 0.349015 0 0.000722885 4.00543e-05
24 1 0.032616 -0.00157232 0.56058 0 2.67029e-05 0.000242233
25 1 0.955063 0.498428 0.489872 0 3.24249e-05 -0.000226974
26 1 0.782617 0.16824 0.560581 0 -2.47955e-05 0.000230789
27 1 0.705064 0.668239 0.489873 0 -3.24249e-05 -0.000257492
28 1 0.489676 0.488054 0.0663529 0 0.000501633 0.00120544
29 1 0.239676 0.678613 0.0663532 0 -0.000497818 0.00120354
30 1 0.144892 0.499209 0.207714 0 0.000432968 0.000190735
31 1 0.894892 0.667458 0.207714 0 -0.000429153 0.000192642
32 1 0.800013 0.498524 0.349015 0 -0.000717163 5.14984e-05
33 1 0.592787 0.167459 0.842739 0 -0.000442505 -0.000196457
34 1 0.498003 -0.0119456 0.9841 0 0.000480652 -0.00120354
35 1 0.248003 0.178613 0.9841 0 -0.000499725 -0.00119781
36 1 0.687666 -0.00147721 0.701437 0 -0.000717163 -3.24249e-05
37 1 0.610092 0.498355 0.630633 0 -3.43323e-05 -0.000556946
38 1 0.437667 0.168143 0.701437 0 0.000717163 -4.19617e-05
39 1 0.360094 0.668311 0.630633 0 3.62396e-05 -0.000549316
40 1 0.342788 -0.00079061 0.842739 0 0.000419617 -0.000205994
41 1 0.265094 0.498277 0.771065 0 0.000278473 0.000688553
42 1 0.0927874 0.167458 0.842739 0 -0.000431061 -0.000190735
43 1 0.0150942 0.66839 0.771065 0 -0.00028038 0.000701904
44 1 0.998003 -0.0119457 0.9841 0 0.000490189 -0.00119591
45 1 0.920045 0.497657 0.910678 0 0.000253677 -0.000411987
46 1 0.550012 0.668144 0.349016 0 0.00071907 3.43323e-05
47 1 0.455063 0.498428 0.489873 0 2.86102e-05 -0.00025177
48 1 0.205063 0.66824 0.489873 0 -3.05176e-05 -0.000257492
49 1 0.110094 0.498356 0.630633 0 -3.43323e-05 -0.000553131
50 1 0.860095 0.668311 0.630634 0 2.47955e-05 -0.000556946
51 1 0.765095 0.498276 0.771065 0 0.000278473 0.000692368
52 1 0.748001 0.178614 0.9841 0 -0.000488281 -0.00120926
53 1 0.670044 0.669011 0.910678 0 -0.00025177 -0.000415802
54 1 0.515094 0.66839 0.771065 0 -0.000270844 0.000707626
55 1 0.420045 0.497656 0.910678 0 0.000263214 -0.000408173
56 1 0.170045 0.66901 0.910678 0 -0.000238419 -0.000411987
ITEM: TIMESTEP
7
ITEM: NUMBER OF ATOMS
56
ITEM: BOX BOUNDS xy xz yz pp pp pp
-1.5544167160987854e+00 1.2203788340091705e+01 0.0000000000000000e+00
-8.4733366966247559e-03 5.5348814725875854e+00 -1.5357282161712646e+00
-2.9168844223022461e-02 1.9049128890037537e+01 0.0000000000000000e+00
ITEM: ATOMS id type xs ys zs fx fy fz
1 1 0.567634 -0.00231085 0.13978 0 0.000133514 -0.000400543
2 1 0.317635 0.168978 0.13978 0 -0.000131607 -0.000391006
3 1 0.222583 -0.00170558 0.279376 0 -2.67029e-05 0.000198364
4 1 0.972583 0.168372 0.279376 0 2.86102e-05 0.00019455
5 1 0.877587 -0.00167058 0.41983 0 0.000101089 8.39233e-05
6 1 0.0676351 -0.00231092 0.13978 0 0.000131607 -0.000394821
7 1 0.989679 0.488113 0.0663717 0 0.000175476 0.000146866
8 1 0.817636 0.168978 0.13978 0 -0.000135422 -0.000404358
9 1 0.73968 0.678555 0.0663713 0 -0.000169754 0.000139236
10 1 0.722585 -0.00170531 0.279376 0 -1.71661e-05 0.000205994
11 1 0.627586 0.168338 0.41983 0 -9.34601e-05 8.96454e-05
12 1 0.532617 -0.00159682 0.560592 0 0.000165939 -0.00022316
13 1 0.282618 0.168264 0.560592 0 -0.000162125 -0.00021553
14 1 0.187667 -0.00154092 0.701438 0 -1.14441e-05 -4.95911e-05
15 1 0.937667 0.168207 0.701438 0 1.52588e-05 -4.57764e-05
16 1 0.842788 -0.000744922 0.842731 0 -4.76837e-05 -0.000144958
17 1 0.644892 0.499255 0.207723 0 -4.19617e-05 0.000139236
18 1 0.472583 0.168372 0.279376 0 2.28882e-05 0.000200272
19 1 0.394893 0.667412 0.207723 0 4.00543e-05 0.000141144
20 1 0.377587 -0.0016701 0.41983 0 8.2016e-05 8.39233e-05
21 1 0.300012 0.498459 0.349015 0 -9.53674e-06 4.19617e-05
22 1 0.127587 0.168338 0.41983 0 -8.96454e-05 8.7738e-05
23 1 0.0500125 0.668208 0.349015 0 7.62939e-06 4.76837e-05
24 1 0.0326175 -0.00159727 0.560592 0 0.000169754 -0.000219345
25 1 0.955061 0.498403 0.489861 0 0.000165939 0.000209808
26 1 0.782619 0.168265 0.560592 0 -0.000167847 -0.000205994
27 1 0.705062 0.668264 0.489861 0 -0.000164032 0.000211716
28 1 0.489678 0.488113 0.0663713 0 0.000165939 0.000144958
29 1 0.239679 0.678554 0.0663715 0 -0.000167847 0.000141144
30 1 0.144893 0.499254 0.207723 0 -4.00543e-05 0.000146866
31 1 0.894893 0.667412 0.207723 0 3.8147e-05 0.000137329
32 1 0.800013 0.49846 0.349015 0 -1.52588e-05 4.19617e-05
33 1 0.592786 0.167412 0.84273 0 4.3869e-05 -0.0001297
34 1 0.498001 -0.0118872 0.984081 0 0.000179291 -0.000150681
35 1 0.248001 0.178554 0.984081 0 -0.000167847 -0.00015831
36 1 0.687666 -0.0015412 0.701438 0 -1.52588e-05 -4.57764e-05
37 1 0.610091 0.498329 0.630623 0 9.34601e-05 -9.34601e-05
38 1 0.437667 0.168207 0.701438 0 1.52588e-05 -5.14984e-05
39 1 0.360093 0.668337 0.630623 0 -8.7738e-05 -9.15527e-05
40 1 0.342787 -0.000745507 0.84273 0 -3.8147e-05 -0.0001297
41 1 0.265096 0.498294 0.771077 0 -2.86102e-05 -0.000190735
42 1 0.0927863 0.167412 0.84273 0 4.57764e-05 -0.000135422
43 1 0.0150957 0.668372 0.771077 0 1.52588e-05 -0.000198364
44 1 0.998001 -0.0118868 0.984082 0 0.000171661 -0.000137329
45 1 0.920045 0.49769 0.910673 0 0.000125885 0.000400543
46 1 0.550012 0.668208 0.349015 0 1.33514e-05 4.57764e-05
47 1 0.455061 0.498404 0.489861 0 0.000167847 0.000217438
48 1 0.205061 0.668265 0.489861 0 -0.000171661 0.000219345
49 1 0.110092 0.49833 0.630623 0 8.7738e-05 -8.7738e-05
50 1 0.860093 0.668337 0.630623 0 -8.39233e-05 -8.2016e-05
51 1 0.765097 0.498294 0.771077 0 -2.09808e-05 -0.000198364
52 1 0.747999 0.178556 0.984081 0 -0.000175476 -0.000139236
53 1 0.670043 0.668978 0.910673 0 -0.000127792 0.000398636
54 1 0.515096 0.668372 0.771077 0 2.09808e-05 -0.000196457
55 1 0.420044 0.49769 0.910673 0 0.000123978 0.000398636
56 1 0.170044 0.668978 0.910673 0 -0.000139236 0.000396729
ITEM: TIMESTEP
8
ITEM: NUMBER OF ATOMS
56
ITEM: BOX BOUNDS xy xz yz pp pp pp
-1.5544167160987854e+00 1.2203788340091705e+01 0.0000000000000000e+00
-8.4733366966247559e-03 5.5348814725875854e+00 -1.5357282161712646e+00
-2.9168844223022461e-02 1.9049128890037537e+01 0.0000000000000000e+00
ITEM: ATOMS id type xs ys zs fx fy fz
1 1 0.567633 -0.00229765 0.139772 0 4.19617e-05 -1.52588e-05
2 1 0.317634 0.168964 0.139772 0 -4.19617e-05 -1.33514e-05
3 1 0.222584 -0.00170564 0.279379 0 -7.62939e-06 -5.72205e-06
4 1 0.972583 0.168373 0.279379 0 9.53674e-06 -5.72205e-06
5 1 0.877587 -0.00166618 0.419833 0 3.24249e-05 -3.62396e-05
6 1 0.0676341 -0.00229776 0.139772 0 4.00543e-05 -1.90735e-06
7 1 0.989679 0.488132 0.0663767 0 0.000144958 3.8147e-05
8 1 0.817635 0.168965 0.139772 0 -4.76837e-05 -3.8147e-06
9 1 0.739681 0.678536 0.0663763 0 -0.000150681 4.57764e-05
10 1 0.722585 -0.00170462 0.279379 0 -2.28882e-05 -1.71661e-05
11 1 0.627586 0.168334 0.419833 0 -2.09808e-05 -2.47955e-05
12 1 0.532616 -0.0015875 0.560589 0 7.82013e-05 -2.47955e-05
13 1 0.282617 0.168255 0.560589 0 -8.2016e-05 -2.86102e-05
14 1 0.187667 -0.00154884 0.701437 0 0.000108719 -0.000152588
15 1 0.937667 0.168215 0.701437 0 -0.000110626 -0.000150681
16 1 0.842787 -0.0007433 0.842727 0 -4.57764e-05 -4.00543e-05
17 1 0.644892 0.499257 0.207726 0 -4.3869e-05 3.43323e-05
18 1 0.472584 0.168372 0.279379 0 1.90735e-05 -9.53674e-06
19 1 0.394893 0.66741 0.207726 0 4.57764e-05 4.3869e-05
20 1 0.377587 -0.00166705 0.419833 0 3.8147e-05 -3.24249e-05