LAMMPS (4 May 2022)
## variable
variable        temp            equal 300
variable        eql_step        equal 500000
variable        rd_seed         equal 1

variable        temp_damp       equal 0.2 # tau_NVT = timestep * 100
variable        t_step          equal 0.002
variable        rlx_step        equal 20000

variable        thermo_freq     equal 100
variable        dump_freq       equal 100

## units
dimension       3
boundary        p p p
units           metal
atom_style      atomic
neighbor        1.0 bin
neigh_modify    every 10 delay 0 check no

## data.lmp, potential
read_data       data.lmp
Reading data file ...
  orthogonal box = (0 0 0) to (26.08221 26.08221 25.1988)
  1 by 1 by 1 MPI processor grid
  reading atoms ...
  900 atoms
  read_data CPU = 0.001 seconds
pair_style      mdpu model.pb
pair_coeff * *

## velocity, timestep
velocity        all create ${temp} ${rd_seed} loop geom
velocity        all create 300 ${rd_seed} loop geom
velocity        all create 300 1 loop geom
timestep        ${t_step}
timestep        0.002

## nvt-relax
fix             equil all nvt temp ${temp} ${temp} ${temp_damp}
fix             equil all nvt temp 300 ${temp} ${temp_damp}
fix             equil all nvt temp 300 300 ${temp_damp}
fix             equil all nvt temp 300 300 0.2
run             ${rlx_step}
run             20000
Generated 0 of 6 mixed pair_coeff terms from geometric mixing rule
Neighbor list info ...
  update every 10 steps, delay 0 steps, check no
  max neighbors/atom: 2000, page size: 100000
  master list distance cutoff = 8
  ghost atom cutoff = 8
  binsize = 4, bins = 7 7 7
  1 neighbor lists, perpetual/occasional/extra = 1 0 0
  (1) pair mdpu, perpetual
      attributes: full, newton on
      pair build: full/bin/atomonly
      stencil: full/bin/3d
      bin: standard
Per MPI rank memory allocation (min/avg/max) = 3.057 | 3.057 | 3.057 Mbytes
   Step          Temp          E_pair         E_mol          TotEng         Press     
         0   300            202.4658       0              237.32726      18562.085    
     20000   295.561        225.73011      0              260.07573      15712.201    
Loop time of 13.5098 on 1 procs for 20000 steps with 900 atoms

Performance: 255.815 ns/day, 0.094 hours/ns, 1480.410 timesteps/s
57.0% CPU use with 1 MPI tasks x no OpenMP threads

MPI task timing breakdown:
Section |  min time  |  avg time  |  max time  |%varavg| %total
---------------------------------------------------------------
Pair    | 8.4445     | 8.4445     | 8.4445     |   0.0 | 62.51
Neigh   | 4.7147     | 4.7147     | 4.7147     |   0.0 | 34.90
Comm    | 0.16386    | 0.16386    | 0.16386    |   0.0 |  1.21
Output  | 1.7083e-05 | 1.7083e-05 | 1.7083e-05 |   0.0 |  0.00
Modify  | 0.15674    | 0.15674    | 0.15674    |   0.0 |  1.16
Other   |            | 0.02997    |            |       |  0.22

Nlocal:            900 ave         900 max         900 min
Histogram: 1 0 0 0 0 0 0 0 0 0
Nghost:           2783 ave        2783 max        2783 min
Histogram: 1 0 0 0 0 0 0 0 0 0
Neighs:              0 ave           0 max           0 min
Histogram: 1 0 0 0 0 0 0 0 0 0
FullNghs:       101348 ave      101348 max      101348 min
Histogram: 1 0 0 0 0 0 0 0 0 0

Total # of neighbors = 101348
Ave neighs/atom = 112.60889
Neighbor list builds = 2000
Dangerous builds not checked
unfix           equil

## nvt-equal
reset_timestep  0
fix             equil all nvt temp ${temp} ${temp} ${temp_damp}
fix             equil all nvt temp 300 ${temp} ${temp_damp}
fix             equil all nvt temp 300 300 ${temp_damp}
fix             equil all nvt temp 300 300 0.2
fix             com all recenter INIT INIT INIT

## thermo_style
thermo_style    custom step time temp ke etotal press
thermo          ${thermo_freq}
thermo          100
thermo_modify   flush yes
dump            1 all custom ${dump_freq} dump.lammpstraj id type x y z
dump            1 all custom 100 dump.lammpstraj id type x y z
run             500000
Generated 0 of 6 mixed pair_coeff terms from geometric mixing rule
Per MPI rank memory allocation (min/avg/max) = 4.341 | 4.341 | 4.341 Mbytes
   Step          Time           Temp          KinEng         TotEng         Press     
         0   0              295.561        34.345628      260.07573      15712.201    
       100   0.2            306.20067      35.582009      261.06301      17217.336    
       200   0.4            307.52138      35.735482      263.01547      17183.327    
       300   0.6            320.38955      37.230826      263.14143      17506.917    
       400   0.8            295.08371      34.290164      262.45218      17542.486    
       500   1              297.62548      34.585531      261.62076      16554.205    
       600   1.2            302.6362       35.167801      261.21832      17107.827    
       700   1.4            294.40916      34.211778      260.76586      16691.591    
       800   1.6            290.49788      33.757268      260.43161      16765.167    
       900   1.8            301.2535       35.007124      261.49793      17916.647    
      1000   2              297.12518      34.527393      263.10832      17330.19     
      1100   2.2            308.83702      35.888366      263.7427       15325.665    
      1200   2.4            289.99115      33.698384      261.83973      17627.249    
      1300   2.6            288.9          33.571587      260.28893      16460.584    
      1400   2.8            299.49565      34.802853      260.63474      16909.159    
      1500   3              295.46487      34.334457      261.78946      18274.113    
      1600   3.2            293.61304      34.119265      262.8176       16210.331    
      1700   3.4            300.23133      34.888343      263.65615      17171.788    
      1800   3.6            307.52961      35.736439      264.75903      18070.11     
      1900   3.8            312.88095      36.35829       263.67265      14699.471    
      2000   4              294.58673      34.232412      261.46844      16844.252    
      2100   4.2            300.54251      34.924503      260.72424      16730.34     
      2200   4.4            294.05905      34.171093      260.97469      16181.212    
      2300   4.6            316.38128      36.765045      262.96976      18620.045    
      2400   4.8            304.30092      35.361249      263.94284      15839.469    
      2500   5              311.36922      36.18262       262.95021      16362.307    
      2600   5.2            304.48005      35.382064      261.405        16964.893    
      2700   5.4            292.25708      33.961696      261.28804      15777.579    
      2800   5.6            300.75958      34.949728      261.39338      16448.717    
      2900   5.8            294.44225      34.215624      261.96068      16436.441    
      3000   6              315.11213      36.617564      263.66225      15601.699    
      3100   6.2            310.99841      36.139529      263.17714      17691.292    
      3200   6.4            302.22756      35.120315      260.70007      15974.636    
      3300   6.6            296.52287      34.457401      260.29781      15795.697    
      3400   6.8            298.2828       34.661914      261.07989      17644.292    
      3500   7              302.73049      35.178758      262.13735      16174.208    
      3600   7.2            307.98427      35.789272      263.27581      15703.466    
      3700   7.4            308.14707      35.80819       264.49067      18325.236    
      3800   7.6            320.91819      37.292256      264.46423      16535.9      
      3900   7.8            305.24613      35.471087      261.98991      17418.778    
      4000   8              299.66994      34.823107      260.76263      16941.998    
      4100   8.2            292.73632      34.017387      260.74414      15539.715    
      4200   8.4            305.80573      35.536116      261.69006      17475.027    
      4300   8.6            306.36185      35.600739      263.77236      16912.129    
      4400   8.8            306.51828      35.618917      264.04129      15262.01     
      4500   9              302.77972      35.184478      261.59564      17380.779    
      4600   9.2            290.45039      33.75175       260.65657      16364.27     
      4700   9.4            289.8481       33.681761      260.86232      16657.587    
      4800   9.6            295.34525      34.320556      261.82654      17189.468    
      4900   9.8            317.05441      36.843267      263.11769      16407.315    
      5000   10             295.68413      34.359936      263.16522      15672.774    
      5100   10.2           308.92206      35.898248      261.05805      17156.914    
      5200   10.4           283.88875      32.989255      259.64718      15815.157    
      5300   10.6           298.38177      34.673415      260.54645      16333.628    
      5400   10.8           301.57587      35.044584      262.24898      16540.438    
      5500   11             320.15072      37.203073      262.80077      16835.698    
      5600   11.2           294.67582      34.242765      262.28574      15243.393    
      5700   11.4           302.14335      35.110528      261.66421      17121.572    
      5800   11.6           291.01793      33.817701      261.41057      16308.753    
      5900   11.8           289.30538      33.618695      261.27284      15972.722    
      6000   12             305.69955      35.523776      261.2857       16043.599    
      6100   12.2           302.46086      35.147425      261.77463      14562.334    
      6200   12.4           310.2025       36.047042      262.98953      17383.894    
      6300   12.6           305.8175       35.537483      263.1868       15789.587    
      6400   12.8           293.83005      34.144483      261.4743       16768.115    
      6500   13             298.8695       34.730092      260.40826      16882.971    
      6600   13.2           290.98175      33.813496      260.42141      16848.949    
      6700   13.4           299.40497      34.792316      262.42981      15341.728    
      6800   13.6           306.63274      35.632218      264.28575      16923.44     
      6900   13.8           301.90351      35.082659      263.09163      15930.276    
      7000   14             295.54191      34.34341       261.47135      16496.481    
      7100   14.2           298.9261       34.736668      261.00849      16150.29     
      7200   14.4           297.02644      34.515919      261.09983      15833.497    
      7300   14.6           313.35666      36.41357       262.10655      16996.654    
      7400   14.8           313.44145      36.423423      264.08553      17600.632    
      7500   15             303.06639      35.217791      263.7689       16242.676    
      7600   15.2           298.04607      34.634405      261.71883      17481.426    
      7700   15.4           298.20463      34.65283       261.00504      16609.717    
      7800   15.6           303.99572      35.325783      260.92196      16559.754    
      7900   15.8           298.28554      34.662233      261.29349      17333.296    
      8000   16             301.89003      35.081091      263.06884      16426.229    
      8100   16.2           301.75614      35.065533      263.97479      16490.665    
      8200   16.4           299.97151      34.858151      262.1921       16304.53     
      8300   16.6           289.61158      33.654276      260.71618      15272.716    
      8400   16.8           291.90407      33.920674      260.84688      15890.844    
      8500   17             303.83892      35.307562      261.68897      16193.272    
      8600   17.2           307.1909       35.697079      262.65499      16342.089    
      8700   17.4           316.22746      36.747171      264.54449      16254.57     
      8800   17.6           312.66993      36.333769      265.14634      15930.892    
      8900   17.8           303.58019      35.277497      262.36172      17202.364    
      9000   18             300.13202      34.876803      261.37168      15182.175    
      9100   18.2           297.58962      34.581363      261.09273      15991.17     
      9200   18.4           296.25104      34.425813      261.27053      15139.003    
      9300   18.6           296.669        34.474382      262.44589      16217.287    
      9400   18.8           310.38158      36.067852      263.83612      14886.309    
      9500   19             305.76071      35.530884      263.14234      15304.916    
      9600   19.2           304.35472      35.3675        260.58348      15660.495    
      9700   19.4           289.70606      33.665255      260.36938      14814.274    
      9800   19.6           295.4165       34.328836      261.39945      17077.088    
      9900   19.8           313.23051      36.39891       262.67726      16436.51     
     10000   20             307.06868      35.682876      263.8005       16739.616    
     10100   20.2           305.62132      35.514686      265.08423      18935.607    
     10200   20.4           316.52802      36.782098      264.19196      16928.171    
     10300   20.6           292.18357      33.953154      261.85301      17682.536    
     10400   20.8           299.62934      34.818388      261.14217      17157.722    
     10500   21             296.90365      34.50165       261.31523      17306.762    
     10600   21.2           306.57344      35.625327      262.42745      17244.572    
     10700   21.4           315.96506      36.716679      264.10643      15956.364    
     10800   21.6           298.06334      34.636412      264.15636      16908.357    
     10900   21.8           293.88453      34.150814      261.49124      16517.169    
     11000   22             296.47517      34.451858      260.76803      16207.669    
     11100   22.2           297.07982      34.522122      260.75852      16138.711    
     11200   22.4           304.76839      35.415571      261.8653       16624.062    
     11300   22.6           301.78967      35.069429      263.4517       17840.809    
     11400   22.8           304.00751      35.327153      263.95617      16241.347    
     11500   23             291.01277      33.817102      261.24476      17282.459    
     11600   23.2           294.77969      34.254836      260.5374       16038.579    
     11700   23.4           292.49815      33.98971       261.15373      17520.176    
     11800   23.6           297.42435      34.562158      262.56578      17424.812    
     11900   23.8           313.18115      36.393175      263.9554       16826.215    
     12000   24             311.25541      36.169395      264.7205       16101.558    
     12100   24.2           315.43353      36.654913      262.47897      17326.49     
     12200   24.4           296.2451       34.425123      260.67766      17117.426    
     12300   24.6           293.26432      34.078742      260.52645      15915.228    
     12400   24.8           305.29785      35.477097      261.85824      16617.366    
     12500   25             300.02689      34.864586      263.4713       17040.008    
     12600   25.2           314.70629      36.570404      263.6986       16724.347    
     12700   25.4           293.02153      34.050529      260.50533      17082.313    
     12800   25.6           285.16188      33.1372        260.07448      15846.051    
     12900   25.8           313.68397      36.451605      261.33678      16266.659    
     13000   26             312.53086      36.317608      262.69967      16644.362    
     13100   26.2           305.07358      35.451036      262.78187      16186.755    
     13200   26.4           291.63838      33.8898        260.27842      15051.823    
     13300   26.6           304.45845      35.379554      259.38162      14865.063    
     13400   26.8           297.55075      34.576846      260.31355      16597.776    
     13500   27             291.91834      33.922333      261.79224      15874.352    
     13600   27.2           298.44625      34.680908      262.29111      16560.851    
     13700   27.4           303.90855      35.315653      262.23279      14468.219    
     13800   27.6           304.33425      35.365122      261.63838      16496.867    
     13900   27.8           299.29378      34.779395      261.36182      16073.294    
     14000   28             306.23417      35.585902      260.92092      16332.943    
     14100   28.2           282.38614      32.814645      259.56401      16872.079    
     14200   28.4           294.92623      34.271865      260.12458      15870.961    
     14300   28.6           297.5259       34.573959      261.96164      16622.033    
     14400   28.8           306.00355      35.559103      262.99234      16559.89     
     14500   29             302.8903       35.197328      262.87195      17027.658    
     14600   29.2           297.47057      34.567528      260.65252      15262.07     
     14700   29.4           291.25046      33.844722      259.53082      17480.13     
     14800   29.6           296.78685      34.488078      260.46469      14707.452    
     14900   29.8           307.35306      35.715922      261.56634      16686.67     
     15000   30             302.70703      35.176031      261.96804      16661.939    
     15100   30.2           303.30677      35.245723      261.96746      14886.108    
     15200   30.4           309.43191      35.957495      261.59438      16534.176    
     15300   30.6           296.47969      34.452384      259.44975      14988.838    
     15400   30.8           291.3012       33.850618      258.3695       16337.369    
     15500   31             302.20741      35.117973      260.08567      15902.379    
     15600   31.2           301.19069      34.999825      261.5332       15623.976    
     15700   31.4           303.02563      35.213054      262.14805      15216.67     
     15800   31.6           304.17742      35.346898      262.24857      16113.798    
     15900   31.8           298.94952      34.73939       261.66412      15096.49     
     16000   32             290.49454      33.75688       260.39404      17239.174    
     16100   32.2           292.74764      34.018702      259.99871      15272.004    
     16200   32.4           309.04902      35.913001      261.8321       16279.216    
     16300   32.6           319.53559      37.131591      263.32314      16935.195    
     16400   32.8           301.36712      35.020327      262.91943      15204.313    
     16500   33             301.71963      35.061291      262.05479      16539.099    
     16600   33.2           300.91924      34.968281      260.73354      15416.722    
     16700   33.4           281.25173      32.682821      258.15008      15501.758    
     16800   33.6           294.78113      34.255003      258.74846      16209.022    
     16900   33.8           295.02268      34.283072      260.43382      15542.537    
     17000   34             298.73442      34.714394      261.76903      15816.609    
     17100   34.2           300.78747      34.952969      262.81838      17338.165    
     17200   34.4           306.82102      35.654097      263.1809       16898.976    
     17300   34.6           300.97831      34.975145      261.23288      16605.998    
     17400   34.8           298.18191      34.650191      259.48009      15835.298    
     17500   35             285.59933      33.188033      260.23392      14938.771    
     17600   35.2           299.99803      34.861232      261.7279       17579.647    
     17700   35.4           308.07513      35.799831      262.48916      16180.373    
     17800   35.6           295.4063       34.327651      262.27102      16464.627    
     17900   35.8           299.98891      34.860172      261.41877      17405.817    
     18000   36             282.27429      32.801647      258.77558      15215.69     
     18100   36.2           283.18367      32.907322      258.42357      17404.439    
     18200   36.4           283.93558      32.994697      260.21291      15888.96     
     18300   36.6           297.25098      34.542012      261.51257      16864.673    
     18400   36.8           304.18999      35.348359      262.50012      15950.782    
     18500   37             311.03122      36.143343      263.13644      17565.202    
     18600   37.2           303.72291      35.294081      262.61632      16861.741    
     18700   37.4           281.81142      32.747859      260.16466      17921.62     
     18800   37.6           292.17262      33.951881      259.95516      17585.513    
     18900   37.8           294.06632      34.171939      261.41145      16236.955    
     19000   38             311.8906       36.243207      262.72755      16793.935    
     19100   38.2           298.6275       34.70197       262.59837      16381.563    
     19200   38.4           282.7224       32.85372       262.27346      16593.19     
     19300   38.6           301.53268      35.039566      261.94733      17879.75     
     19400   38.8           299.15538      34.763313      261.28792      15524.172    
     19500   39             280.4688       32.591841      259.45526      15106.174    
     19600   39.2           292.6943       34.012503      258.96055      16508.29     
     19700   39.4           295.36392      34.322726      261.19421      16191.587    
     19800   39.6           299.00165      34.745447      262.50956      16603.551    
     19900   39.8           288.79197      33.559033      262.56865      16154.677    
     20000   40             311.94299      36.249294      262.31341      15929.811    
     20100   40.2           289.22403      33.609241      260.78752      15425.049    
     20200   40.4           290.20634      33.72339       259.6123       15641.374    
     20300   40.6           296.84144      34.494421      260.50049      15308.503    
     20400   40.8           296.18787      34.418473      262.93291      16971.359    
     20500   41             299.89881      34.849702      263.22845      15243.596    
     20600   41.2           300.96104      34.973139      262.30783      16425.817    
     20700   41.4           290.9544       33.810318      260.78546      15841.377    
     20800   41.6           298.44335      34.680571      259.57818      16799.569    
     20900   41.8           285.31725      33.155254      259.76417      16209.148    
     21000   42             299.69288      34.825772      262.40512      14976.548    
     21100   42.2           311.92822      36.247579      263.72662      17858.586    
     21200   42.4           304.25813      35.356277      263.81808      14572.442    
     21300   42.6           298.81287      34.723511      262.08839      17003.42     
     21400   42.8           313.08268      36.381732      260.81439      15594.056    
     21500   43             298.27172      34.660626      260.67764      15504.764    
     21600   43.2           290.94632      33.809379      261.41997      17926.668    
     21700   43.4           287.54184      33.413762      261.88986      15084.607    
     21800   43.6           296.14865      34.413915      261.91913      16201.569    
     21900   43.8           289.9384       33.692254      261.81657      17402.314    
     22000   44             304.99306      35.441679      261.36742      16482.413    
     22100   44.2           291.05698      33.822238      260.92678      16666.761    
     22200   44.4           290.34276      33.739243      260.79563      15723.035    
     22300   44.6           302.73528      35.179314      261.98626      15557.881    
     22400   44.8           313.18202      36.393276      263.48153      15889.8      
     22500   45             308.86807      35.891974      263.55776      17792.523    
     22600   45.2           296.31086      34.432765      260.88047      16235.15     
     22700   45.4           284.83484      33.099196      260.04964      16743.818    
     22800   45.6           308.38159      35.835443      261.07606      16817.466    
     22900   45.8           299.21103      34.76978       262.35267      15990.27     
     23000   46             301.55477      35.042133      263.22341      18119.986    
     23100   46.2           302.86839      35.194782      262.45542      17084.204    
     23200   46.4           292.80938      34.025876      259.92688      15649.962    
     23300   46.6           294.80532      34.257814      260.15323      16966.855    
     23400   46.8           294.36333      34.206453      261.73936      15795.562    
     23500   47             308.29612      35.825511      263.02139      15950.139    
     23600   47.2           310.57967      36.090871      262.926        16018.257    
     23700   47.4           296.41635      34.445023      262.10799      16199.332    
     23800   47.6           300.54198      34.924442      261.87057      14653.34     
     23900   47.8           302.82396      35.189619      261.68561      17144.254    
     24000   48             303.90482      35.31522       261.68758      14548.232    
     24100   48.2           299.41474      34.793451      262.92199      15936.289    
     24200   48.4           300.91988      34.968356      264.63903      15949.501    
     24300   48.6           299.10629      34.757608      264.294        15695.42     
     24400   48.8           297.58291      34.580583      262.22462      14942.221    
     24500   49             290.96918      33.812036      261.06193      14939.117    
     24600   49.2           303.86772      35.310909      261.20421      16017.183    
     24700   49.4           295.61959      34.352436      262.18474      15657.862    
     24800   49.6           299.60335      34.815369      263.52165      16103.42     
     24900   49.8           319.69702      37.150351      265.75815      16989.457    
     25000   50             312.9223       36.363096      264.9427       16342.035    
     25100   50.2           296.83711      34.493918      262.70766      15612.063    
     25200   50.4           307.05495      35.68128       262.248        16398.594    
     25300   50.6           303.18104      35.231114      262.2593       15878.528    
     25400   50.8           311.37469      36.183255      261.97748      15008.649    
     25500   51             293.61122      34.119054      261.10084      15939.73     
     25600   51.2           296.49279      34.453906      260.61377      16378.23     
     25700   51.4           286.08792      33.24481       261.58346      16400.149    
     25800   51.6           313.55875      36.437053      263.50076      16703.902    
     25900   51.8           305.63791      35.516614      263.63019      15223.065    
     26000   52             302.15103      35.111421      262.27668      15773.634    
     26100   52.2           293.4646       34.102015      259.72279      16311.198    
     26200   52.4           297.51314      34.572475      260.03572      16787.176    
     26300   52.6           299.25094      34.774416      261.60237      15314.547    
     26400   52.8           311.33964      36.179183      262.86427      15490.913    
     26500   53             297.86732      34.613633      263.02938      15666.785    
     26600   53.2           295.68164      34.359647      261.32554      16804.755    
     26700   53.4           286.52203      33.295255      259.52638      14410.811    
     26800   53.6           295.94757      34.390549      260.29971      17275.862    
     26900   53.8           295.41686      34.328878      261.88903      16251.13     
     27000   54             299.17686      34.765808      262.4673       16513.161    
     27100   54.2           298.95396      34.739906      262.42303      17149.141    
     27200   54.4           294.69111      34.244542      261.74248      16315.617    
     27300   54.6           291.80549      33.90922       259.56413      17028.262    
     27400   54.8           288.07047      33.475192      259.51596      17293.992    
     27500   55             289.16946      33.6029        261.62973      15521.942    
     27600   55.2           308.16074      35.809778      262.44783      16827.872    
     27700   55.4           299.11754      34.758915      262.39514      17628.604    
     27800   55.6           303.86044      35.310063      261.61966      16979.077    
     27900   55.8           283.78963      32.977737      259.90284      15740.824    
     28000   56             291.47801      33.871164      259.28659      15682.432    
     28100   56.2           297.86227      34.613047      261.83688      15506.328    
     28200   56.4           291.50359      33.874137      263.19836      15575.273    
     28300   56.6           299.60639      34.815722      262.99905      16255.136    
     28400   56.8           301.65637      35.05394       261.84762      16349.667    
     28500   57             293.91507      34.154363      260.05796      16168.964    
     28600   57.2           295.8636       34.380791      260.17115      15097.443    
     28700   57.4           295.91806      34.38712       261.24837      16296.462    
     28800   57.6           305.51182      35.501962      261.74983      15652.263    
     28900   57.8           318.8662       37.053805      262.37189      17517.732    
     29000   58             297.7686       34.602162      262.04233      16119.431    
     29100   58.2           299.32703      34.783259      260.12789      16192.442    
     29200   58.4           276.09785      32.083915      259.02727      16339.594    
     29300   58.6           294.88569      34.267154      260.50974      16132.046    
     29400   58.8           302.42728      35.143523      261.7298       16247.107    
     29500   59             298.69799      34.710161      261.94528      16493.692    
     29600   59.2           306.94265      35.66823       261.74685      17165.912    
     29700   59.4           288.57733      33.534092      260.72786      15252.557    
     29800   59.6           296.44732      34.448623      259.91525      17281.993    
     29900   59.8           294.11934      34.178099      260.1126       16239.224    
     30000   60             307.77752      35.765247      262.309        17879.831    
     30100   60.2           298.03027      34.632569      263.11417      16417.744    
     30200   60.4           304.76579      35.415269      262.36377      16798.447    
     30300   60.6           291.33242      33.854246      260.52379      15645.724    
     30400   60.8           295.08954      34.290842      259.40534      16639.204    
     30500   61             292.77546      34.021934      260.2175       16966.29     
     30600   61.2           306.82701      35.654793      262.67034      15493.512    
     30700   61.4           318.18296      36.974409      262.77326      16962.717    
     30800   61.6           293.19652      34.070864      261.59185      15190.366    
     30900   61.8           281.29928      32.688346      260.60355      16780.529    
     31000   62             292.34115      33.971466      260.70853      16647.867    
     31100   62.2           299.42979      34.7952        261.81901      15887.674    
     31200   62.4           308.83335      35.88794       263.20965      17531.47     
     31300   62.6           311.13187      36.155039      263.6744       14936.578    
     31400   62.8           304.604        35.396469      261.17719      17708.305    
     31500   63             291.65642      33.891897      260.16608      14075.41     
     31600   63.2           295.34188      34.320165      260.80961      17318.141    
     31700   63.4           305.32457      35.480202      262.56248      16838.248    
     31800   63.6           311.09811      36.151115      263.38022      15357.784    
     31900   63.8           297.10031      34.524503      262.79987      16779.768    
     32000   64             293.49189      34.105186      259.74964      15840.99     
     32100   64.2           285.13445      33.134012      258.91452      15518.005    
     32200   64.4           284.6779       33.080959      260.54067      17149.28     
     32300   64.6           300.46794      34.915839      262.28309      16171.745    
     32400   64.8           302.5908       35.162525      262.91466      16112.585    
     32500   65             316.87625      36.822564      262.56404      16677.614    
     32600   65.2           289.48121      33.639126      260.28727      16558.499    
     32700   65.4           298.67907      34.707962      259.61503      16428.304    
     32800   65.6           280.2358       32.564765      260.48726      16143.432    
     32900   65.8           309.43306      35.957628      261.54251      17365.514    
     33000   66             305.49272      35.499742      261.87918      16786.32     
     33100   66.2           309.42732      35.956962      262.14407      16316.84     
     33200   66.4           299.93978      34.854463      261.54341      18108.207    
     33300   66.6           296.73006      34.481478      259.83003      16554.99     
     33400   66.8           292.29948      33.966623      259.09355      15492.895    
     33500   67             303.58738      35.278333      260.64854      18266.627    
     33600   67.2           295.94851      34.390659      262.61439      16081.222    
     33700   67.4           296.66328      34.473718      262.73975      17286.787    
     33800   67.6           310.22324      36.049452      261.95693      17106.518    
     33900   67.8           291.33207      33.854205      260.49356      15612.797    
     34000   68             289.62281      33.655581      258.79276      15961.973    
     34100   68.2           287.00512      33.351393      259.36723      15467.122    
     34200   68.4           299.04046      34.749958      262.06396      15543.497    
     34300   68.6           284.54269      33.065246      262.91659      17388.46     
     34400   68.8           309.85426      36.006574      263.24737      16360.031    
     34500   69             301.6784       35.056499      261.74736      15623.237    
     34600   69.2           297.20091      34.536193      260.29271      16911.032    
     34700   69.4           290.23026      33.72617       260.47927      16147.61     
     34800   69.6           312.48412      36.312177      262.35657      15380.605    
     34900   69.8           306.53918      35.621346      263.50361      17764.303    
     35000   70             309.15849      35.925722      262.8914       16005.135    
     35100   70.2           302.26172      35.124284      262.28503      16010.821    
     35200   70.4           302.39602      35.13989       261.66641      17110.162    
     35300   70.6           287.83187      33.447465      260.71433      16338.088    
     35400   70.8           289.45742      33.636362      260.52048      16346.396    
     35500   71             302.78021      35.184535      261.74968      16222.885    
     35600   71.2           300.82406      34.957221      262.9977       16096.913    
     35700   71.4           309.35409      35.948452      263.85404      17860.29     
     35800   71.6           301.98097      35.09166       263.14194      16673.722    
     35900   71.8           294.97858      34.277947      260.74288      16428.011    
     36000   72             288.97315      33.580087      260.37305      16836.465    
     36100   72.2           306.61022      35.629601      261.56449      16053.707    
     36200   72.4           313.21344      36.396928      263.43839      17031.616    
     36300   72.6           308.22889      35.817698      263.58681      17247.372    
     36400   72.8           306.46594      35.612835      262.79066      16026.164    
     36500   73             302.56035      35.158987      262.11839      17624.441    
     36600   73.2           288.97236      33.579995      261.33068      18019.23     
     36700   73.4           288.20542      33.490873      260.42574      15168.058    
     36800   73.6           291.13996      33.831881      258.58449      16309.12     
     36900   73.8           288.70588      33.54903       258.39645      15408.544    
     37000   74             295.05807      34.287185      260.91448      16042.335    
     37100   74.2           300.39697      34.907591      261.88185      17388.925    
     37200   74.4           302.00431      35.094371      262.52228      15056.351    
     37300   74.6           313.59505      36.441272      262.65537      16805.82     
     37400   74.8           288.71901      33.550555      261.08854      16570.984    
     37500   75             290.80334      33.792765      259.67064      15391.414    
     37600   75.2           300.19046      34.883594      260.44996      16143.597    
     37700   75.4           295.02015      34.282778      262.57276      17560.296    
     37800   75.6           302.54241      35.156902      263.57184      15984.863    
     37900   75.8           301.5907       35.046308      262.69733      16176.068    
     38000   76             302.83555      35.190966      261.37585      16009.036    
     38100   76.2           298.70271      34.71071       260.70551      16059.738    
     38200   76.4           304.50232      35.384653      260.72657      15639.124    
     38300   76.6           304.66105      35.403097      262.98908      15845.287    
     38400   76.8           303.03092      35.213668      263.83116      15856.327    
     38500   77             304.12912      35.341284      262.78496      17598.285    
     38600   77.2           286.43404      33.28503       261.05252      16055.741    
     38700   77.4           297.28109      34.545511      260.80356      15988.073    
     38800   77.6           295.99844      34.396461      261.13413      17300.809    
     38900   77.8           295.66788      34.358048      261.65639      16301.222    
     39000   78             318.78716      37.044621      262.64035      16864.98     
     39100   78.2           314.88313      36.590954      265.12171      15258.646    
     39200   78.4           320.25048      37.214665      265.67352      16789.403    
     39300   78.6           313.98259      36.486306      263.28974      15204.957    
     39400   78.8           308.85109      35.89          262.06874      16280.277    
     39500   79             294.40151      34.210889      260.90883      15112.801    
     39600   79.2           279.02463      32.424021      260.57161      16045.535    
     39700   79.4           308.41023      35.83877       262.36572      15446.117    
     39800   79.6           309.24098      35.935308      263.76674      16414.323    
     39900   79.8           305.9331       35.550916      263.44773      16998.61     
     40000   80             296.05877      34.403471      262.54041      16293.307    
     40100   80.2           297.12936      34.527879      262.24642      15755.884    
     40200   80.4           303.36385      35.252357      261.98186      17530.948    
     40300   80.6           303.47753      35.265567      261.07937      15805.122    
     40400   80.8           292.18033      33.952778      259.61077      16088.04     
     40500   81             292.84646      34.030185      259.02966      16076.964    
     40600   81.2           291.84966      33.914352      260.98353      15146.028    
     40700   81.4           305.92183      35.549607      262.60088      17280.273    
     40800   81.6           304.66308      35.403333      262.97127      16297.222    
     40900   81.8           293.74456      34.134549      262.05839      16719.393    
     41000   82             300.7522       34.94887       260.31332      16762.921    
     41100   82.2           286.09312      33.245414      259.72873      18070.41     
     41200   82.4           311.1671       36.159133      261.89761      17101.682    
     41300   82.6           301.25778      35.007622      263.47318      17020.979    
     41400   82.8           302.14768      35.111031      262.67867      16253.064    
     41500   83             295.20583      34.304355      261.10733      16336.645    
     41600   83.2           293.90384      34.153058      260.46189      16815.29     
     41700   83.4           290.83644      33.796611      261.08455      15201.287    
     41800   83.6           304.26519      35.357097      264.13409      16997.897    
     41900   83.8           314.56747      36.554272      264.52829      15450.046    
     42000   84             302.59384      35.162878      263.09597      18047.495    
     42100   84.2           286.49761      33.292417      261.38941      15194.602    
     42200   84.4           297.17219      34.532855      260.79909      17742.01     
     42300   84.6           300.45875      34.914771      261.37525      15608.687    
     42400   84.8           300.22801      34.887957      264.07274      16251.298    
     42500   85             312.90955      36.361614      264.11303      17911.443    
     42600   85.2           300.24248      34.889638      262.87607      16300.876    
     42700   85.4           296.97409      34.509835      261.80659      17027.305    
     42800   85.6           291.37577      33.859284      261.32976      18150.732    
     42900   85.8           301.65674      35.053983      261.57374      17392.207    
     43000   86             316.50197      36.779071      263.95091      15578.291    
     43100   86.2           305.02143      35.444975      264.6934       17738.917    
     43200   86.4           312.14379      36.272628      263.00726      15192.042    
     43300   86.6           296.44261      34.448075      261.42934      16786.281    
     43400   86.8           284.59662      33.071513      260.99837      15862.316    
     43500   87             287.39064      33.396192      261.64726      16180.659    
     43600   87.2           295.70974      34.362912      263.59328      16733.395    
     43700   87.4           304.51094      35.385654      264.87102      16181.998    
     43800   87.6           308.36988      35.834082      262.65049      16674.687    
     43900   87.8           292.05543      33.938263      260.57237      16631.752    
     44000   88             293.83417      34.144961      261.09243      15192.067    
     44100   88.2           299.46836      34.799682      262.90674      15639.088    
     44200   88.4           307.28298      35.707778      263.77753      15626.303    
     44300   88.6           303.74799      35.296996      262.80125      16232.175    
     44400   88.8           291.34448      33.855647      261.00006      16126.742    
     44500   89             289.00803      33.58414       261.01659      15197.891    
     44600   89.2           295.72096      34.364215      261.68661      17059.392    
     44700   89.4           297.97523      34.626173      262.40225      16410.667    
     44800   89.6           300.70316      34.943171      262.52493      17281.627    
     44900   89.8           303.05069      35.215966      262.02104      15399.547    
     45000   90             298.37951      34.673152      260.59342      16235.277    
     45100   90.2           303.31628      35.24683       260.42928      15285.351    
     45200   90.4           303.70001      35.29142       261.72192      16344.413    
     45300   90.6           310.77388      36.113438      263.3099       16920.143    
     45400   90.8           312.11232      36.268972      263.39289      16086.904    
     45500   91             302.23708      35.12142       261.39842      16247.348    
     45600   91.2           284.72254      33.086146      260.56024      16852.893    
     45700   91.4           300.66612      34.938868      261.06034      16743.102    
     45800   91.6           298.6913       34.709383      261.7788       16771.865    
     45900   91.8           288.31971      33.504155      262.67915      15820.687    
     46000   92             317.11015      36.849744      263.9649       17958.322    
     46100   92.2           320.27697      37.217744      264.50142      17036.364    
     46200   92.4           293.98115      34.162042      262.24299      17044.343    
     46300   92.6           298.20333      34.652679      260.79382      16652.298    
     46400   92.8           297.52797      34.5742        260.5334       17576.351    
     46500   93             300.18028      34.88241       261.18939      14910.953    
     46600   93.2           304.60228      35.396269      263.36738      18102.238    
     46700   93.4           318.43574      37.003784      263.77865      15558.169    
     46800   93.6           298.61765      34.700825      262.03951      15734.434    
     46900   93.8           299.46004      34.798715      260.71447      18526.186    
     47000   94             286.17509      33.254939      260.80906      15471.964    
     47100   94.2           297.81784      34.607883      261.61963      17666.54     
     47200   94.4           297.2298       34.53955       262.62869      17013.993    
     47300   94.6           309.84706      36.005737      263.36954      16657.959    
     47400   94.8           307.00807      35.675833      262.50976      17927.358    
     47500   95             297.56981      34.579061      260.29935      15842.189    
     47600   95.2           294.2432       34.192493      259.99914      16382.449    
     47700   95.4           291.56539      33.881319      261.31956      16261.788    
     47800   95.6           305.37406      35.485953      263.01084      17485.642    
     47900   95.8           295.85001      34.379213      263.19656      15125.758    
     48000   96             303.17723      35.230671      262.93781      16438.316    
     48100   96.2           294.4913       34.221323      262.18419      15926.506    
     48200   96.4           300.55707      34.926195      260.88897      16439.299    
     48300   96.6           304.59792      35.395762      260.5003       15605.937    
     48400   96.8           305.35835      35.484128      261.81172      16942.853    
     48500   97             312.74928      36.342989      263.98316      16875.662    
     48600   97.2           307.00945      35.675994      263.58803      16406.417    
     48700   97.4           302.22214      35.119685      261.68981      16555.935    
     48800   97.6           297.70492      34.594762      260.81828      16498.291    
     48900   97.8           301.69891      35.058883      260.93459      16243.634    
     49000   98             297.35469      34.554064      261.46659      14503.025    
     49100   98.2           305.35704      35.483975      262.90331      17578.254    
     49200   98.4           314.49514      36.545867      265.32513      15779.653    
     49300   98.6           316.40301      36.767571      264.38839      15542.442    
     49400   98.8           311.53383      36.201748      262.34175      17976.933    
     49500   99             302.54979      35.157759      261.26565      15650.024    
     49600   99.2           298.90665      34.734409      260.45034      16582.406    
     49700   99.4           295.54248      34.343475      260.32384      14793.13     
     49800   99.6           300.71091      34.944072      261.62395      17424.476    
     49900   99.8           302.19532      35.116568      263.37546      15382.851    
     50000   100            302.20839      35.118087      263.42298      17738.841    
     50100   100.2          305.15808      35.460855      260.8677       15560.229    
     50200   100.4          279.68352      32.500587      259.81224      16412.944    
     50300   100.6          296.31725      34.433508      260.81708      16085.654    
     50400   100.8          291.6192       33.887571      262.23143      15358.775    
     50500   101            303.9837       35.324386      262.50612      17406.548    
     50600   101.2          306.36338      35.600917      261.33547      15253.07     
     50700   101.4          285.96372      33.230377      258.97866      15599.726    
     50800   101.6          299.70957      34.827712      259.5399       16948.954    
     50900   101.8          300.62859      34.934506      260.98329      15134.336    
     51000   102            311.3361       36.178772      261.72001      15426.388    
     51100   102.2          303.24608      35.238671      261.76888      14760.824    
     51200   102.4          295.75017      34.36761       261.60664      15737.399    
     51300   102.6          298.93967      34.738246      261.28385      15087.061    
     51400   102.8          293.57149      34.114437      260.0698       16194.857    
     51500   103            288.00148      33.467174      260.00297      15888.697    
     51600   103.2          301.71672      35.060953      261.74247      17142.717    
     51700   103.4          304.27161      35.357842      262.93155      16669.869    
     51800   103.6          305.66219      35.519435      262.74748      16868.097    
     51900   103.8          297.92497      34.620332      260.54193      15944.584    
     52000   104            284.78441      33.093335      258.86265      16615.659    
     52100   104.2          289.53329      33.645178      259.92734      16157.353    
     52200   104.4          295.15967      34.298991      261.51618      16195.457    
     52300   104.6          309.47656      35.962683      262.47219      16251.29     
     52400   104.8          305.14488      35.459321      262.74678      16526.316    
     52500   105            295.87759      34.382417      261.67511      16603.481    
     52600   105.2          301.57611      35.044612      259.65737      17530.249    
     52700   105.4          290.92929      33.8074        260.02735      14469.729    
     52800   105.6          296.83818      34.494042      261.92828      17457.855    
     52900   105.8          302.72138      35.177699      262.80352      14916.88     
     53000   106            311.88371      36.242407      262.4772       17769.562    
     53100   106.2          297.06808      34.520758      261.61549      15599.032    
     53200   106.4          303.51918      35.270407      261.38538      16996.417    
     53300   106.6          291.78599      33.906953      262.08902      17423.756    
     53400   106.8          311.26004      36.169933      263.73778      15318.076    
     53500   107            305.49261      35.499729      263.61117      16059.443    
     53600   107.2          300.72653      34.945887      261.78115      17638.716    
     53700   107.4          293.7677       34.137238      260.42774      16106.375    
     53800   107.6          303.08672      35.220153      260.70233      17205.856    
     53900   107.8          305.91912      35.549292      261.96645      16759.248    
     54000   108            304.93591      35.435038      264.12552      15018.619    
     54100   108.2          314.57827      36.555527      265.81765      17578.786    
     54200   108.4          292.10933      33.944527      262.89893      16943.027    
     54300   108.6          300.40187      34.90816       260.95658      16189.343    
     54400   108.8          295.87856      34.38253       260.31447      17674.166    
     54500   109            299.3998       34.791715      260.88643      17150.41     
     54600   109.2          297.71764      34.59624       262.3243       16813.153    
     54700   109.4          299.00212      34.745502      263.42532      17363.687    
     54800   109.6          306.98584      35.673249      262.61384      15984.556    
     54900   109.8          290.95309      33.810166      259.94974      16844.432    
     55000   110            285.46194      33.172068      259.93701      15944.647    
     55100   110.2          294.78406      34.255343      261.25059      16929.67     
     55200   110.4          311.62257      36.21206       262.3962       16433.671    
     55300   110.6          295.45658      34.333494      262.61578      16201.98     
     55400   110.8          302.27339      35.12564       262.00029      16547.54     
     55500   111            295.09348      34.2913        261.56667      16299.303    
     55600   111.2          299.63525      34.819076      261.43543      15229.969    
     55700   111.4          298.01387      34.630663      261.58999      17888.189    
     55800   111.6          310.616        36.095092      262.13613      15647.202    
     55900   111.8          293.44882      34.100182      262.15994      16022.873    
     56000   112            300.4164       34.909849      261.36727      15362.3      
     56100   112.2          285.40089      33.164973      260.37973      14766.926    
     56200   112.4          291.9065       33.920957      259.92736      16317.401    
     56300   112.6          299.65207      34.82103       261.46896      14869.005    
     56400   112.8          306.81199      35.653048      263.31397      16503.158    
     56500   113            299.79001      34.837059      263.00838      16074.826    
     56600   113.2          299.60564      34.815635      261.84434      15552.882    
     56700   113.4          294.86092      34.264275      260.03816      17481.215    
     56800   113.6          284.31555      33.038851      258.59931      14519.603    
     56900   113.8          280.20792      32.561525      257.79679      15843.369    
     57000   114            287.30416      33.386143      259.74456      16043.287    
     57100   114.2          288.33324      33.505727      261.94829      16253.321    
     57200   114.4          307.3262       35.712801      262.82023      16039.821    
     57300   114.6          288.88066      33.569339      262.78006      16616.317    
     57400   114.8          299.43313      34.795589      261.45641      15489.829    
     57500   115            290.60075      33.769223      259.84982      17749.144    
     57600   115.2          286.83161      33.33123       259.66854      16959.709    
     57700   115.4          304.9406       35.435583      262.5334       15936.337    
     57800   115.6          304.83957      35.423843      263.36003      17774.707    
     57900   115.8          304.59234      35.395114      262.15794      16145.972    
     58000   116            290.3727       33.742721      260.70547      17051.414    
     58100   116.2          276.31823      32.109524      260.37836      15844.667    
     58200   116.4          298.60818      34.699725      261.7489       15880.279    
     58300   116.6          308.12222      35.805303      264.16351      15801.465    
     58400   116.8          313.36951      36.415063      263.4736       15029.796    
     58500   117            296.96802      34.509131      261.95776      16450.336    
     58600   117.2          298.73322      34.714255      260.9126       16806.683    
     58700   117.4          285.52303      33.179166      260.83621      16210.566    
     58800   117.6          302.95323      35.204641      261.51091      15481.722    
     58900   117.8          312.80641      36.349629      264.35265      16873.933    
     59000   118            308.96493      35.90323       264.65889      16017.721    
     59100   118.2          303.42043      35.258932      262.62071      16872.32     
     59200   118.4          303.51874      35.270356      261.56204      17002.266    
     59300   118.6          294.00771      34.165128      261.14378      16151.64     
     59400   118.8          295.86554      34.381016      261.43052      17831.539    
     59500   119            301.40785      35.02506       262.50337      15773.577    
     59600   119.2          314.58636      36.556467      264.12774      16670        
     59700   119.4          313.57022      36.438387      263.31182      16871.943    
     59800   119.6          301.3168       35.014479      261.15847      16061.594    
     59900   119.8          294.56474      34.229858      260.53633      15825.745    
     60000   120            299.57555      34.812138      261.22098      16973.622    
     60100   120.2          309.41651      35.955706      262.66545      14767.239    
     60200   120.4          316.2368       36.748256      264.21803      16656.64     
     60300   120.6          307.57224      35.741392      264.53471      16369.325    
     60400   120.8          293.40608      34.095216      261.81477      16438.294    
     60500   121            299.69387      34.825887      260.26078      16887.982    
     60600   121.2          295.11426      34.293714      259.82651      16815.641    
     60700   121.4          286.92469      33.342047      260.71497      15039.843    
     60800   121.6          302.98703      35.208569      262.80231      18487.106    
     60900   121.8          298.27748      34.661296      262.9663       17094.088    
     61000   122            312.80283      36.349212      262.09862      16683.642    
     61100   122.2          301.03525      34.981763      261.47795      16792.348    
     61200   122.4          304.32781      35.364373      261.5684       17458.7      
     61300   122.6          285.7101       33.200905      261.20687      15833.56     
     61400   122.8          297.91043      34.618643      260.50858      16497.232    
     61500   123            300.78502      34.952684      259.02182      14738.673    
     61600   123.2          289.42619      33.632733      258.96566      16517.465    
     61700   123.4          299.24672      34.773926      261.10874      17606.78     
     61800   123.6          304.14809      35.34349       262.14042      15792.703    
     61900   123.8          308.07913      35.800296      262.49445      16038.299    
     62000   124            298.90039      34.733681      261.58598      15522.648    
     62100   124.2          289.76939      33.672614      259.12728      16163.847    
     62200   124.4          294.93031      34.272338      259.03402      15777.53     
     62300   124.6          293.7169       34.131334      260.14573      16958.172    
     62400   124.8          295.30217      34.31555       260.97848      15613.47     
     62500   125            299.2512       34.774447      261.7645       16520.491    
     62600   125.2          290.0212       33.701876      261.87903      16930.85     
     62700   125.4          297.75844      34.600981      262.0816       15047.339    
     62800   125.6          295.22094      34.306111      261.61079      15825.823    
     62900   125.8          297.85396      34.61208       260.59325      16331.985    
     63000   126            296.39663      34.442732      260.02357      14650.15     
     63100   126.2          295.90777      34.385924      260.81928      16326.175    
     63200   126.4          293.21018      34.072451      262.83914      16490.061    
     63300   126.6          322.88865      37.521234      263.5746       16904.591    
     63400   126.8          312.85166      36.354887      262.51437      16229.355    
     63500   127            294.62178      34.236485      261.59519      17188.592    
     63600   127.2          292.42347      33.981031      261.41861      15777.684    
     63700   127.4          312.50359      36.314439      261.59017      16242.628    
     63800   127.6          294.50907      34.223388      261.30792      16614.077    
     63900   127.8          297.362        34.554913      260.85033      15271.099    
     64000   128            299.12152      34.759378      260.56302      16595.969    
     64100   128.2          295.55997      34.345508      261.14492      15956.337    
     64200   128.4          288.31496      33.503603      262.83516      17395.508    
     64300   128.6          301.94346      35.087301      263.59986      16637.889    
     64400   128.8          308.44766      35.84312       261.97428      16760.062    
     64500   129            290.21633      33.724551      259.83419      17683.982    
     64600   129.2          291.68407      33.89511       260.127        16023.296    
     64700   129.4          300.70895      34.943845      261.40278      15921.48     
     64800   129.6          291.25139      33.84483       262.72429      16244.283    
     64900   129.8          308.90886      35.896714      263.37937      17536.762    
     65000   130            304.48586      35.38274       261.32909      16146.839    
     65100   130.2          284.92218      33.109345      259.61883      15653.327    
     65200   130.4          294.49677      34.221959      260.34971      17255.252    
     65300   130.6          314.75245      36.575767      262.14939      15520.389    
     65400   130.8          300.41049      34.909162      262.77367      17635.558    
     65500   131            311.54745      36.203331      262.22409      16680.109    
     65600   131.2          302.54138      35.156781      261.47972      16651.319    
     65700   131.4          299.81274      34.8397        261.1019       16213.11     
     65800   131.6          296.98232      34.510792      261.18217      17384.395    
     65900   131.8          295.5982       34.34995       261.47182      16180.656    
     66000   132            306.15036      35.576163      262.15819      17041.533    
     66100   132.2          308.17392      35.81131       262.63028      17341.922    
     66200   132.4          301.63262      35.051179      261.34859      16273.897    
     66300   132.6          292.40787      33.979219      259.49517      16673.381    
     66400   132.8          296.69654      34.477583      259.79167      17331.381    
     66500   133            297.06464      34.520358      261.10736      16847.17     
     66600   133.2          294.34973      34.204872      261.61407      17010.218    
     66700   133.4          307.65357      35.750843      261.49586      17132.555    
     66800   133.6          310.6025       36.093523      261.33728      16153.137    
     66900   133.8          288.12355      33.48136       260.67361      16088.87     
     67000   134            302.95338      35.204659      260.01246      16758.524    
     67100   134.2          296.39593      34.44265       259.65641      15757.898    
     67200   134.4          307.82457      35.770714      261.15927      17406.743    
     67300   134.6          316.95127      36.831281      262.62778      17622.961    
     67400   134.8          301.29796      35.01229       262.22676      16682.286    
     67500   135            294.24317      34.19249       260.53091      17204.081    
     67600   135.2          290.41557      33.747704      259.09846      17254.166    
     67700   135.4          307.10703      35.687333      259.29956      14810.67     
     67800   135.6          306.51509      35.618546      262.07153      16735.43     
     67900   135.8          309.5898       35.975843      262.83592      15007.591    
     68000   136            296.04857      34.402286      261.84284      15263.417    
     68100   136.2          288.26387      33.497666      260.20487      15918.798    
     68200   136.4          299.19818      34.768286      260.00852      14779.207    
     68300   136.6          318.63224      37.026618      261.74536      15038.727    
     68400   136.8          317.64225      36.911576      263.60596      15252.796    
     68500   137            309.2919       35.941226      262.90508      15406.731    
     68600   137.2          312.14708      36.273011      261.86802      15557.233    
     68700   137.4          309.51565      35.967226      260.95168      15897.44     
     68800   137.6          289.77571      33.673348      260.35293      16494.85     
     68900   137.8          295.54785      34.3441        260.32131      16370.631    
     69000   138            294.95888      34.275659      261.35575      15674.713    
     69100   138.2          305.06364      35.449881      262.62793      16380.364    
     69200   138.4          294.13984      34.180482      262.75208      17938.34     
     69300   138.6          294.81187      34.258575      261.11246      13461.804    
     69400   138.8          289.87281      33.684633      259.7398       15939.839    
     69500   139            293.59884      34.117616      259.96675      16146.22     
     69600   139.2          300.39085      34.90688       261.51606      16632.152    
     69700   139.4          299.94265      34.854797      261.95795      15945.478    
     69800   139.6          305.07602      35.451319      261.70808      14838.68     
     69900   139.8          288.97957      33.580833      260.99767      16720.35     
     70000   140            297.63435      34.586561      260.71989      14621.317    
     70100   140.2          303.06461      35.217584      261.27601      15762.754    
     70200   140.4          305.94132      35.551871      262.97607      15036.81     
     70300   140.6          299.53195      34.807071      263.81805      14790.108    
     70400   140.8          295.96575      34.392662      262.22136      16206.082    
     70500   141            304.01517      35.328044      260.36277      15325.663    
     70600   141.2          285.93943      33.227555      260.58404      15988.377    
     70700   141.4          300.19348      34.883944      261.6965       16414.095    
     70800   141.6          300.33567      34.900468      263.14174      15082.296    
     70900   141.8          321.96855      37.414314      264.22891      15979.38     
     71000   142            305.05033      35.448334      263.58191      16142.865    
     71100   142.2          298.79757      34.721733      261.19819      15773.055    
     71200   142.4          294.88046      34.266545      260.49542      15880.311    
     71300   142.6          297.81021      34.606997      261.02117      16148.558    
     71400   142.8          304.16792      35.345794      262.62801      16709.73     
     71500   143            310.94896      36.133784      263.92219      16258.433    
     71600   143.2          306.4669       35.612946      262.02358      16314.041    
     71700   143.4          301.59843      35.047207      260.14518      17043.484    
     71800   143.6          296.77499      34.486699      260.44532      15720.665    
     71900   143.8          301.63978      35.052012      261.58727      16298.594    
     72000   144            309.70384      35.989094      262.84331      15504.002    
     72100   144.2          313.79402      36.464393      262.74298      15893.089    
     72200   144.4          289.92743      33.69098       259.95226      15372.874    
     72300   144.6          295.04538      34.28571       259.60087      15249.275    
     72400   144.8          300.28824      34.894956      260.79085      15801.183    
     72500   145            300.34487      34.901537      262.31538      16278.494    
     72600   145.2          302.69023      35.174079      262.87848      16919.988    
     72700   145.4          297.21727      34.538095      260.4584       16588.738    
     72800   145.6          278.65333      32.380874      258.94689      16537.863    
     72900   145.8          285.01161      33.119737      259.90975      16286.868    
     73000   146            310.02725      36.026676      261.71215      17036.293    
     73100   146.2          295.66391      34.357586      262.2723       15733.272    
     73200   146.4          302.98526      35.208363      261.94851      17252.345    
     73300   146.6          297.64605      34.58792       259.56056      16986.166    
     73400   146.8          281.97345      32.766688      258.38732      16885.524    
     73500   147            303.47063      35.264765      259.53361      15886.887    
     73600   147.2          307.46408      35.728823      260.82756      16626.67     
     73700   147.4          301.89588      35.081771      261.26412      15774.984    
     73800   147.6          308.21927      35.81658       261.77782      15700.312    
     73900   147.8          305.99063      35.557602      262.15635      16168.675    
     74000   148            310.90277      36.128416      262.03701      16502.576    
     74100   148.2          295.67663      34.359064      260.9903       17023.993    
     74200   148.4          295.97916      34.39422       259.83881      15743.512    
     74300   148.6          290.5344       33.761512      259.31977      16943.206    
     74400   148.8          295.99174      34.395682      261.15425      15485.36     
     74500   149            301.68661      35.057453      262.88479      15263.182    
     74600   149.2          305.02893      35.445847      262.41391      17263.247    
     74700   149.4          299.89612      34.84939       260.77902      16256.356    
     74800   149.6          294.55112      34.228275      260.22862      16600.553    
     74900   149.8          291.96719      33.928009      260.43648      16684.041    
     75000   150            287.92552      33.458348      260.9158       14558.655    
     75100   150.2          301.17145      34.99759       261.34054      17091.948    
     75200   150.4          297.98399      34.627191      261.29047      15480.022    
     75300   150.6          293.30018      34.082909      260.92094      16204.703    
     75400   150.8          298.37011      34.67206       260.83982      16473.601    
     75500   151            288.42704      33.516626      261.09534      15985.043    
     75600   151.2          295.27905      34.312863      261.94322      16085.054    
     75700   151.4          304.57444      35.393034      262.46022      16591.192    
     75800   151.6          313.96112      36.483812      261.90816      16142.515    
     75900   151.8          293.95972      34.159552      259.9286       15309.8      
     76000   152            297.45464      34.565678      259.43312      15438.813    
     76100   152.2          298.15019      34.646504      261.10828      15905.402    
     76200   152.4          296.82745      34.492795      262.76586      17045.058    
     76300   152.6          301.56542      35.043371      262.29468      16358.591    
     76400   152.8          308.76522      35.880023      261.24911      15974.977    
     76500   153            287.42567      33.400263      260.26878      16439.17     
     76600   153.2          295.02124      34.282905      259.12316      16180.729    
     76700   153.4          294.18864      34.186153      258.69416      15983.276    
     76800   153.6          292.78959      34.023577      260.36361      14767.911    
     76900   153.8          303.95245      35.320755      262.17173      15562.07     
     77000   154            313.29319      36.406194      262.61364      15757.619    
     77100   154.2          303.21196      35.234706      261.40499      14631.271    
     77200   154.4          284.67706      33.080861      259.38049      16946.965    
     77300   154.6          291.28648      33.848907      259.43774      14814.966    
     77400   154.8          313.04825      36.377731      260.3286       17402.701    
     77500   155            290.53079      33.761093      260.89116      16226.574    
     77600   155.2          304.08754      35.336454      261.98974      16165.866    
     77700   155.4          309.79339      35.999501      263.20768      15679.764    
     77800   155.6          306.0421       35.563582      264.16651      16071.23     
     77900   155.8          302.83047      35.190375      262.71585      15888.247    
     78000   156            300.17763      34.882103      260.69714      15023.196    
     78100   156.2          288.39656      33.513085      260.09014      16397.091    
     78200   156.4          293.41989      34.09682       260.75558      16929.146    
     78300   156.6          308.88843      35.89434       262.7192       14223.49     
     78400   156.8          306.41383      35.606779      263.6583       18044.678    
     78500   157            296.88252      34.499194      261.33721      15243.298    
     78600   157.2          306.04822      35.564294      259.66583      15975.318    
     78700   157.4          296.23028      34.423402      260.09466      16160.504    
     78800   157.6          311.64761      36.21497       261.57686      15836.99     
     78900   157.8          304.3463       35.366522      262.6891       15791.354    
     79000   158            296.93573      34.505378      262.13034      16673.405    
     79100   158.2          282.78679      32.861202      259.14949      17475.89     
     79200   158.4          288.591        33.53568       259.07639      15287.583    
     79300   158.6          294.72393      34.248356      260.57344      16574.582    
     79400   158.8          294.67531      34.242706      261.76835      16307.086    
     79500   159            307.61935      35.746866      261.80975      16702.088    
     79600   159.2          300.99999      34.977665      260.57914      15980.967    
     79700   159.4          295.69934      34.361703      258.3092       15866.634    
     79800   159.6          292.25659      33.961639      259.00552      14831.106    
     79900   159.8          291.5379       33.878124      260.6532       17855.056    
     80000   160            309.60358      35.977444      261.47856      15140.631    
     80100   160.2          312.30164      36.290971      261.48674      15291.969    
     80200   160.4          290.02694      33.702543      260.53241      16225.056    
     80300   160.6          298.22411      34.655094      258.4466       15086.845    
     80400   160.8          288.22133      33.492722      258.06927      15986.194    
     80500   161            292.35414      33.972975      260.00167      14810.105    
     80600   161.2          300.09654      34.87268       260.94799      16227.483    
     80700   161.4          306.32978      35.597012      261.0777       16268.842    
     80800   161.6          294.12445      34.178694      261.23341      16722.114    
     80900   161.8          297.73829      34.59864       261.30716      16363.354    
     81000   162            298.21099      34.653569      261.04344      16151.84     
     81100   162.2          288.25027      33.496086      260.01302      17575.084    
     81200   162.4          297.45361      34.565558      259.29784      16191.428    
     81300   162.6          289.511        33.642588      259.71331      17092.264    
     81400   162.8          300.35911      34.903191      262.00509      17842.882    
     81500   163            303.41052      35.257781      262.43451      16281.611    
     81600   163.2          303.04717      35.215557      261.73892      16499.397    
     81700   163.4          290.73849      33.785229      259.53299      16307.241    
     81800   163.6          292.7943       34.024124      258.44302      16588.693    
     81900   163.8          294.89477      34.268209      259.45666      15034.819    
     82000   164            299.72421      34.829412      260.82224      16575.97     
     82100   164.2          299.5085       34.804346      261.79795      16525.484    
     82200   164.4          310.246        36.052096      262.15489      15992.063    
     82300   164.6          294.54883      34.228008      261.86501      17786.267    
     82400   164.8          304.30512      35.361737      260.50153      16104.01     
     82500   165            300.35031      34.902169      259.50965      16510.273    
     82600   165.2          294.49867      34.22218       260.09461      16194.004    
     82700   165.4          305.92304      35.549748      262.43787      16610.969    
     82800   165.6          305.51343      35.502148      262.52356      17270.743    
     82900   165.8          304.20459      35.350055      261.69096      16431.807    
     83000   166            291.53732      33.878056      260.04192      16329.606    
     83100   166.2          281.36532      32.696021      259.59455      15832.407    
     83200   166.4          304.31063      35.362377      260.04472      17038.082    
     83300   166.6          297.452        34.565371      260.71116      15145.181    
     83400   166.8          308.2684       35.822289      261.56858      16869.585    
     83500   167            311.70351      36.221466      262.57403      16475.834    
     83600   167.2          310.96649      36.13582       263.83936      16352.687    
     83700   167.4          299.55184      34.809382      263.2055       15734.679    
     83800   167.6          291.44127      33.866895      260.82143      16246.974    
     83900   167.8          293.97209      34.160989      260.19321      15715.539    
     84000   168            293.8666       34.14873       260.66129      15990.864    
     84100   168.2          317.39119      36.882402      262.2988       16562.624    
     84200   168.4          308.91533      35.897466      263.48832      16576.725    
     84300   168.6          314.54927      36.552157      263.77297      16826.693    
     84400   168.8          293.03974      34.052646      261.24524      15161.846    
     84500   169            298.84521      34.727269      260.1155       17701.966    
     84600   169.2          285.77025      33.207895      259.52822      16417.787    
     84700   169.4          286.916        33.341036      260.18954      15653.84     
     84800   169.6          305.48109      35.49839       262.45796      17158.538    
     84900   169.8          303.05682      35.216679      262.52851      16927.556    
     85000   170            294.53047      34.225875      261.20276      15562.612    
     85100   170.2          303.03524      35.214171      260.3031       16221.234    
     85200   170.4          302.3369       35.133021      260.39297      15613.881    
     85300   170.6          289.3616       33.625227      260.71009      16745.997    
     85400   170.8          305.56182      35.507772      261.38292      17076.906    
     85500   171            308.70601      35.873141      262.71027      15863.246    
     85600   171.2          311.05037      36.145568      263.4206       17151.116    
     85700   171.4          295.95056      34.390897      261.83716      17482.573    
     85800   171.6          290.53087      33.761102      259.94578      15892.928    
     85900   171.8          288.92649      33.574665      259.62928      15878.351    
     86000   172            321.27945      37.334237      260.77648      16224.251    
     86100   172.2          301.88752      35.0808        262.37894      16091.373    
     86200   172.4          312.90904      36.361554      264.29198      16983.814    
     86300   172.6          312.70826      36.338222      265.00107      18226.815    
     86400   172.8          292.78967      34.023586      261.976        16129.698    
     86500   173            291.53545      33.877839      260.52587      18083.2      
     86600   173.2          316.65221      36.796529      260.0423       15962.886    
     86700   173.4          305.12337      35.456821      260.08592      18078.087    
     86800   173.6          306.62471      35.631285      261.56068      16513.838    
     86900   173.8          309.10657      35.919689      263.10173      16406.966    
     87000   174            304.06741      35.334114      262.5006       16364.259    
[...]
    478600   957.2          295.45996      34.333887      258.97963      15392.469    
    478700   957.4          291.81962      33.910861      258.86254      15891.524    
    478800   957.6          295.73159      34.365451      260.29566      17328.617    
    478900   957.8          307.5682       35.740922      261.91602      16473.863    
    479000   958            308.20363      35.814762      261.73502      18013.593    
    479100   958.2          306.94871      35.668935      260.93426      16125.341    
    479200   958.4          311.60242      36.209718      260.14528      15161.061    
    479300   958.6          296.58871      34.465053      259.20166      17433.404    
    479400   958.8          288.23012      33.493744      258.00849      15463.305    
    479500   959            280.35257      32.578334      257.16913      15357.793    
    479600   959.2          305.78159      35.533309      258.96123      17174.846    
    479700   959.4          297.41131      34.560643      260.81027      14618.295    
    479800   959.6          308.48709      35.847703      261.35515      17291.062    
    479900   959.8          291.75695      33.903579      260.76646      16537.968    
    480000   960            298.17699      34.649619      258.84525      15199.957    
    480100   960.2          307.26023      35.705136      258.34135      16509.769    
    480200   960.4          309.76757      35.9965        260.73392      16383.901    
    480300   960.6          307.17992      35.695803      262.36578      16313.653    
    480400   960.8          311.12692      36.154463      261.74141      17171.415    
    480500   961            287.30347      33.386063      260.034        16207.508    
    480600   961.2          294.7491       34.25128       259.22849      16869.64     
    480700   961.4          296.33985      34.436134      259.51904      17711.535    
    480800   961.6          305.39998      35.488965      262.01623      15944.037    
    480900   961.8          305.81102      35.53673       262.85525      16995.138    
    481000   962            303.96299      35.32198       261.35122      16610.518    
    481100   962.2          297.24497      34.541313      259.98289      16104.217    
    481200   962.4          290.03666      33.703673      259.71396      18997.883    
    481300   962.6          302.24239      35.122037      259.95089      15961.029    
    481400   962.8          309.20692      35.93135       261.59607      17361.876    
    481500   963            301.3461       35.017884      263.74037      16322.775    
    481600   963.2          309.16889      35.926931      262.98924      17572.738    
    481700   963.4          289.40979      33.630828      261.57892      16129.628    
    481800   963.6          302.58437      35.161777      261.13231      17848.032    
    481900   963.8          292.73782      34.017561      260.84129      16496.705    
    482000   964            288.32607      33.504893      260.6063       17081.708    
    482100   964.2          299.93296      34.85367       259.55999      15664.509    
    482200   964.4          291.93569      33.92435       258.74807      16187.974    
    482300   964.6          302.5516       35.157969      259.64273      17176.157    
    482400   964.8          301.0341       34.981629      261.55462      15934.533    
    482500   965            305.56281      35.507887      261.92575      17026.462    
    482600   965.2          301.69103      35.057967      261.26784      16184.825    
    482700   965.4          284.41406      33.050299      258.81161      17002.427    
    482800   965.6          288.89444      33.570941      258.09744      15532.822    
    482900   965.8          300.04305      34.866464      259.17628      17216.824    
    483000   966            302.52039      35.154343      260.68014      16264.737    
    483100   966.2          312.12389      36.270317      261.56497      16719.42     
    483200   966.4          303.24711      35.238791      261.22056      16241.383    
    483300   966.6          292.97409      34.045016      258.44359      16270.622    
    483400   966.8          284.76479      33.091055      258.13925      16198.008    
    483500   967            307.68036      35.753956      259.62046      17720.387    
    483600   967.2          308.86051      35.891095      260.89287      15556.66     
    483700   967.4          287.64593      33.425858      261.06566      17005.163    
    483800   967.6          306.78748      35.650199      260.67874      16806.911    
    483900   967.8          303.69663      35.291028      260.02868      15275.62     
    484000   968            295.03068      34.284002      259.12561      17207.961    
    484100   968.2          293.43497      34.098572      257.4415       15922.455    
    484200   968.4          278.34835      32.345434      257.811        16335.462    
    484300   968.6          294.20637      34.188213      260.09263      16127.284    
    484400   968.8          301.36307      35.019856      261.00278      16387.903    
    484500   969            308.68245      35.870404      260.91204      16209.192    
    484600   969.2          286.23818      33.262271      259.68875      15517.489    
    484700   969.4          283.5825       32.953667      257.89762      16885.911    
    484800   969.6          283.20416      32.909703      258.46761      16575.682    
    484900   969.8          313.63224      36.445594      261.06031      16347.159    
    485000   970            303.0306       35.213631      261.55769      18227.68     
    485100   970.2          302.37471      35.137413      261.35968      15768.091    
    485200   970.4          305.42717      35.492125      259.81126      16406.85     
    485300   970.6          291.78765      33.907146      258.37597      16621.58     
    485400   970.8          298.65627      34.705313      259.05051      16518.4      
    485500   971            301.98856      35.092541      261.7064       16520.574    
    485600   971.2          301.70951      35.060114      261.6894       17886.174    
    485700   971.4          302.15629      35.112032      260.80537      14873.891    
    485800   971.6          303.21435      35.234984      259.53938      17518.588    
    485900   971.8          280.38539      32.582148      258.80438      16183.429    
    486000   972            303.76722      35.29923       260.03253      15546.859    
    486100   972.2          302.47413      35.148967      262.12341      18813.97     
    486200   972.4          311.84809      36.238267      262.13214      15126.224    
    486300   972.6          296.57489      34.463447      260.47016      17204.55     
    486400   972.8          294.26534      34.195066      259.52228      17838.835    
    486500   973            300.94222      34.970951      259.65592      16295        
    486600   973.2          311.0481       36.145304      260.29597      15984.87     
    486700   973.4          317.00056      36.837009      261.34713      17478.642    
    486800   973.6          301.41677      35.026097      263.07912      16042.433    
    486900   973.8          318.14908      36.970472      264.09496      16931.684    
    487000   974            313.86983      36.473203      261.57351      17148.726    
    487100   974.2          307.88439      35.777666      260.27231      15971.717    
    487200   974.4          300.87815      34.963507      259.81224      17265.521    
    487300   974.6          288.88168      33.569458      259.80357      16868.454    
    487400   974.8          305.52901      35.503959      260.74009      16413.433    
    487500   975            303.5734       35.276707      262.17354      17083.094    
    487600   975.2          318.82982      37.049578      262.7995       15940.437    
    487700   975.4          298.667        34.70656       260.38604      17029.943    
    487800   975.6          283.9264       32.993631      259.08605      17035.883    
    487900   975.8          287.27835      33.383143      259.69117      16068.854    
    488000   976            306.04467      35.563882      261.40753      17685.174    
    488100   976.2          309.43663      35.958044      261.92659      15797.408    
    488200   976.4          295.59499      34.349578      260.54437      16944.608    
    488300   976.6          285.78501      33.20961       258.18103      15659.434    
    488400   976.8          295.92949      34.388448      258.91592      17307.319    
    488500   977            284.16532      33.021394      260.46707      15338.156    
    488600   977.2          296.08923      34.40701       261.28866      16740.224    
    488700   977.4          306.46072      35.612229      260.83902      17048.81     
    488800   977.6          289.87239      33.684584      258.37041      16163.466    
    488900   977.8          287.75386      33.4384        257.69678      16506.858    
    489000   978            289.88173      33.685669      258.87059      16166.261    
    489100   978.2          297.20435      34.536593      260.09481      16295.393    
    489200   978.4          297.25356      34.542312      260.78544      16541.828    
    489300   978.6          307.25342      35.704344      260.7165       17042.889    
    489400   978.8          298.05432      34.635363      259.32968      15811.209    
    489500   979            282.34737      32.810139      257.56746      17921.342    
    489600   979.2          308.01136      35.79242       258.25961      15139.349    
    489700   979.4          292.57071      33.998141      260.35697      17325.826    
    489800   979.6          296.24598      34.425226      260.9496       17870.201    
    489900   979.8          301.39417      35.023471      260.8047       16198.085    
    490000   980            290.53018      33.761022      259.93218      17744.647    
    490100   980.2          291.87644      33.917464      258.19168      16025.451    
    490200   980.4          288.98981      33.582023      258.29772      15708.188    
    490300   980.6          303.403        35.256906      261.16432      17534.686    
    490400   980.8          299.60707      34.815801      261.50138      17248.302    
    490500   981            296.0222       34.399222      260.76866      15797.217    
    490600   981.2          301.10338      34.989679      259.47417      17754.615    
    490700   981.4          285.02529      33.121327      258.72666      17178.743    
    490800   981.6          305.85973      35.54239       260.11687      15812.398    
    490900   981.8          311.2564       36.169509      262.17061      17886.021    
    491000   982            314.03774      36.492715      261.91952      16885.254    
    491100   982.2          300.11391      34.874698      260.08381      17188.222    
    491200   982.4          297.32342      34.550429      259.32626      15909.729    
    491300   982.6          287.95838      33.462166      259.65769      16699.062    
    491400   982.8          303.43389      35.260496      260.29661      16116.262    
    491500   983            319.85186      37.168343      260.76698      17284.06     
    491600   983.2          305.42065      35.491367      260.70899      16522.58     
    491700   983.4          300.2471       34.890175      260.28356      17783.028    
    491800   983.6          297.80407      34.606283      259.31046      16423.185    
    491900   983.8          290.78933      33.791137      258.51351      16019.002    
    492000   984            292.28677      33.965146      259.80227      17001.655    
    492100   984.2          313.46987      36.426725      261.55241      15979.609    
    492200   984.4          298.86484      34.72955       261.74844      17275.74     
    492300   984.6          305.43876      35.493471      260.9499       16913.435    
    492400   984.8          287.30184      33.385873      258.34064      16876.506    
    492500   985            287.22726      33.377206      258.05625      17631.394    
    492600   985.2          296.42209      34.445691      259.3562       16738.158    
    492700   985.4          297.83941      34.61039       260.80883      16982.198    
    492800   985.6          302.04977      35.099654      261.59731      17912.455    
    492900   985.8          296.19963      34.419839      261.61965      16944.854    
    493000   986            303.36125      35.252054      259.86948      16609.856    
    493100   986.2          295.88866      34.383704      258.2236       18016.849    
    493200   986.4          299.7237       34.829354      258.9444       15411.047    
    493300   986.6          307.63894      35.749143      260.89543      16491.828    
    493400   986.8          310.19023      36.045615      261.40689      17239.256    
    493500   987            298.79898      34.721897      260.84009      13995.123    
    493600   987.2          295.04123      34.285227      260.05956      17521.251    
    493700   987.4          296.20337      34.420274      258.47852      14060.85     
    493800   987.6          281.66471      32.730811      256.85105      17058.536    
    493900   987.8          290.91469      33.805704      258.55188      15124.739    
    494000   988            297.49199      34.570018      260.17763      16646.697    
    494100   988.2          309.78936      35.999033      261.00039      15685.496    
    494200   988.4          307.50284      35.733327      261.29244      17921.953    
    494300   988.6          306.17206      35.578684      260.83372      16176.735    
    494400   988.8          286.20583      33.258512      259.01427      17027.229    
    494500   989            291.42789      33.865341      258.06147      18227.58     
    494600   989.2          294.01597      34.166088      259.32659      16168.664    
    494700   989.4          307.80615      35.768573      261.41977      17130.044    
    494800   989.6          301.39237      35.023261      261.66386      17153.562    
    494900   989.8          295.16072      34.299113      260.68831      17561.249    
    495000   990            305.92827      35.550354      259.4285       17217.797    
    495100   990.2          293.85621      34.147523      258.80594      15506.015    
    495200   990.4          292.93409      34.040368      260.0924       18498.291    
    495300   990.6          302.71786      35.177289      262.13593      17100.562    
    495400   990.8          310.38964      36.068788      261.90927      16167.664    
    495500   991            302.78683      35.185304      260.15058      17037.279    
    495600   991.2          292.44199      33.983184      259.1848       16699.534    
    495700   991.4          293.00027      34.048058      259.51317      15126.469    
    495800   991.6          305.82707      35.538595      260.08752      18453.784    
    495900   991.8          299.0131       34.746778      260.35706      15747.4      
    496000   992            290.69809      33.780534      260.49803      18009.521    
    496100   992.2          299.29021      34.778981      260.91221      16086.563    
    496200   992.4          304.6581       35.402755      261.15633      17563.17     
    496300   992.6          309.62911      35.980411      261.10779      16383.855    
    496400   992.8          301.08176      34.987167      260.45827      16631.945    
    496500   993            300.06753      34.869308      259.1608       16606.533    
    496600   993.2          300.37415      34.904939      258.9702       15626.966    
    496700   993.4          294.71551      34.247377      261.16326      17538.673    
    496800   993.6          305.02048      35.444865      262.47713      16097.662    
    496900   993.8          302.14497      35.110717      261.64832      16935.757    
    497000   994            300.30744      34.897187      260.4393       16485.83     
    497100   994.2          304.78226      35.417183      259.55167      16850.689    
    497200   994.4          313.29632      36.406558      259.42897      15187.838    
    497300   994.6          314.91721      36.594914      262.06158      17380.277    
    497400   994.8          304.77476      35.416312      262.97698      17105.205    
    497500   995            300.68388      34.940931      261.54093      18055.753    
    497600   995.2          313.84696      36.470545      259.79144      15338.105    
    497700   995.4          298.50003      34.687157      259.31814      17485.006    
    497800   995.6          293.31461      34.084586      260.08106      16019.925    
    497900   995.8          311.64597      36.214779      262.61508      17926.028    
    498000   996            313.0549       36.378505      263.24026      16020.766    
    498100   996.2          304.50544      35.385015      262.25356      16309.318    
    498200   996.4          306.53354      35.62069       260.99943      18006.974    
    498300   996.6          297.3177       34.549765      260.21987      15182.404    
    498400   996.8          296.08943      34.407034      260.2221       17300.179    
    498500   997            309.26858      35.938516      261.62677      17508.675    
    498600   997.2          307.85226      35.773933      263.77922      17375.931    
    498700   997.4          296.44822      34.448727      263.14452      16983.768    
    498800   997.6          311.22726      36.166123      261.61207      17920.721    
    498900   997.8          305.27475      35.474413      260.77416      16713.769    
    499000   998            292.81039      34.025993      260.01748      17260.009    
    499100   998.2          300.45808      34.914693      260.71688      16400.751    
    499200   998.4          311.25583      36.169443      262.5375       16219.654    
    499300   998.6          309.95697      36.01851       263.51476      17594.832    
    499400   998.8          304.81824      35.421364      261.4085       16292.637    
    499500   999            306.51968      35.619079      259.61836      17433.514    
    499600   999.2          287.61521      33.422288      259.42457      17977.92     
    499700   999.4          298.83895      34.726541      260.88299      18096.627    
    499800   999.6          307.74791      35.761806      262.22669      18131.834    
    499900   999.8          308.94215      35.900583      261.9545       18636.675    
    500000   1000           298.66896      34.706788      260.25965      16819.562    
Loop time of 328.484 on 1 procs for 500000 steps with 900 atoms

Performance: 263.027 ns/day, 0.091 hours/ns, 1522.145 timesteps/s
55.4% CPU use with 1 MPI tasks x no OpenMP threads

MPI task timing breakdown:
Section |  min time  |  avg time  |  max time  |%varavg| %total
---------------------------------------------------------------
Pair    | 205.12     | 205.12     | 205.12     |   0.0 | 62.45
Neigh   | 111.3      | 111.3      | 111.3      |   0.0 | 33.88
Comm    | 3.7906     | 3.7906     | 3.7906     |   0.0 |  1.15
Output  | 2.2149     | 2.2149     | 2.2149     |   0.0 |  0.67
Modify  | 5.3846     | 5.3846     | 5.3846     |   0.0 |  1.64
Other   |            | 0.67       |            |       |  0.20

Nlocal:            900 ave         900 max         900 min
Histogram: 1 0 0 0 0 0 0 0 0 0
Nghost:           2786 ave        2786 max        2786 min
Histogram: 1 0 0 0 0 0 0 0 0 0
Neighs:              0 ave           0 max           0 min
Histogram: 1 0 0 0 0 0 0 0 0 0
FullNghs:       101520 ave      101520 max      101520 min
Histogram: 1 0 0 0 0 0 0 0 0 0

Total # of neighbors = 101520
Ave neighs/atom = 112.8
Neighbor list builds = 50000
Dangerous builds not checked

Total wall time: 0:05:49
