ITEM: TIMESTEP
0
ITEM: NUMBER OF ATOMS
56
ITEM: BOX BOUNDS xy xz yz pp pp pp
-4.6646600961685181e-01 1.2185099840164185e+01 0.0000000000000000e+00
0.0000000000000000e+00 5.5264081358909607e+00 -4.6646600961685181e-01
0.0000000000000000e+00 1.9019960045814514e+01 0.0000000000000000e+00
ITEM: ATOMS id type xs ys zs fx fy fz
1 1 0.555183 8.90091e-07 0.132369 -0.000699997 0.000305176 -4.95911e-05
2 1 0.305183 0.166666 0.132369 -0.00069046 -0.000293732 -5.72205e-05
3 1 0.198025 9.12308e-06 0.275226 -0.000127792 0.000106812 -3.62396e-05
4 1 0.948024 0.166658 0.275226 -0.000116348 -9.34601e-05 -3.62396e-05
5 1 0.84084 9.05422e-06 0.418084 3.43323e-05 5.91278e-05 -5.53131e-05
6 1 0.0551821 8.90153e-07 0.132369 -0.000667572 0.000303268 -5.53131e-05
7 1 0.983748 0.500044 0.0609391 -0.00122452 0.000225067 4.19617e-05
8 1 0.805182 0.166666 0.132369 -0.000648499 -0.000295639 -5.53131e-05
9 1 0.733748 0.666623 0.0609392 -0.00120354 -0.000232697 3.24249e-05
10 1 0.698024 9.12314e-06 0.275227 -8.39233e-05 0.000104904 -4.00543e-05
11 1 0.590842 0.166658 0.418084 -2.67029e-05 -6.29425e-05 -4.95911e-05
12 1 0.483661 9.61873e-06 0.560938 -0.000112534 0.000108719 0.000104904
13 1 0.23366 0.166657 0.560938 -9.15527e-05 -0.000106812 9.91821e-05
14 1 0.126467 9.05696e-06 0.703794 0.000120163 0.000118256 0.000177383
15 1 0.876467 0.166658 0.703794 0.000133514 -0.000102997 0.000175476
16 1 0.769294 8.34659e-06 0.846658 0.000276566 0.000131607 -0.00018692
17 1 0.626612 0.500009 0.203795 -0.000284195 0.000116348 0.00018692
18 1 0.448026 0.166658 0.275226 -0.000137329 -9.34601e-05 -3.8147e-05
19 1 0.376611 0.666659 0.203795 -0.000249863 -0.000137329 0.00018692
20 1 0.340841 9.05416e-06 0.418084 5.72205e-06 7.05719e-05 -5.34058e-05
21 1 0.269438 0.500009 0.346658 -0.000120163 0.000106812 -0.000181198
22 1 0.0908402 0.166658 0.418084 1.90735e-05 -6.48499e-05 -5.72205e-05
23 1 0.019437 0.666658 0.346658 -0.000106812 -0.000116348 -0.000171661
24 1 0.983659 9.61879e-06 0.560938 -8.01086e-05 0.000106812 9.72748e-05
25 1 0.912245 0.50001 0.489515 8.96454e-05 0.000106812 -9.34601e-05
26 1 0.733659 0.166657 0.560938 -5.53131e-05 -0.000106812 9.15527e-05
27 1 0.662244 0.666658 0.489515 0.000125885 -0.000102997 -0.000101089
28 1 0.48375 0.500044 0.0609391 -0.00124741 0.000221252 4.19617e-05
29 1 0.233749 0.666623 0.0609391 -0.00123978 -0.000230789 4.76837e-05
30 1 0.12661 0.500009 0.203795 -0.000242233 0.000123978 0.000188828
31 1 0.87661 0.666659 0.203795 -0.000236511 -0.0001297 0.000185013
32 1 0.769437 0.500009 0.346658 -7.82013e-05 0.000106812 -0.000175476
33 1 0.519296 0.166659 0.846658 0.000226974 -0.0001297 -0.000181198
34 1 0.412157 4.36878e-05 0.989514 0.00122833 0.000230789 -4.19617e-05
35 1 0.162156 0.166623 0.989514 0.00123596 -0.00022316 -4.76837e-05
36 1 0.626469 9.05689e-06 0.703794 7.43866e-05 0.000114441 0.000179291
37 1 0.555066 0.500009 0.632368 -4.76837e-05 6.48499e-05 5.72205e-05
38 1 0.376468 0.166658 0.703794 0.000104904 -0.000106812 0.000177383
39 1 0.305065 0.666658 0.632368 -2.09808e-05 -6.67572e-05 5.34058e-05
40 1 0.269295 8.34652e-06 0.846658 0.000242233 0.000133514 -0.000185013
41 1 0.197881 0.500009 0.775226 0.000110626 9.53674e-05 3.43323e-05
42 1 0.0192942 0.166659 0.846658 0.000259399 -0.000123978 -0.000188828
43 1 0.94788 0.666658 0.775226 0.000127792 -0.000108719 3.05176e-05
44 1 0.912156 4.36878e-05 0.989514 0.00124741 0.000228882 -4.3869e-05
45 1 0.840722 0.500001 0.918084 0.000701904 0.000295639 5.34058e-05
46 1 0.519438 0.666658 0.346658 -0.000139236 -0.000110626 -0.000165939
47 1 0.412246 0.50001 0.489515 7.05719e-05 9.72748e-05 -9.72748e-05
48 1 0.162246 0.666658 0.489515 7.82013e-05 -0.000106812 -9.72748e-05
49 1 0.0550641 0.500009 0.632369 -5.72205e-06 6.48499e-05 4.95911e-05
50 1 0.805064 0.666658 0.632369 1.14441e-05 -6.86646e-05 4.3869e-05
51 1 0.697879 0.500009 0.775226 0.000160217 9.91821e-05 2.86102e-05
52 1 0.662158 0.166623 0.989514 0.00120163 -0.000226974 -3.24249e-05
53 1 0.590724 0.666666 0.918084 0.000642776 -0.000299454 6.10352e-05
54 1 0.447881 0.666658 0.775226 0.000106812 -0.000101089 3.62396e-05
55 1 0.340723 0.500001 0.918084 0.000667572 0.000293732 5.72205e-05
56 1 0.0907223 0.666666 0.918084 0.000680923 -0.000297546 5.53131e-05
ITEM: TIMESTEP
1
ITEM: NUMBER OF ATOMS
56
ITEM: BOX BOUNDS xy xz yz pp pp pp
-4.6712195873260498e-01 1.2185709118843079e+01 0.0000000000000000e+00
-2.7632713317871094e-04 5.5266844630241394e+00 -4.6651268005371094e-01
-9.5099210739135742e-04 1.9020911037921906e+01 0.0000000000000000e+00
ITEM: ATOMS id type xs ys zs fx fy fz
1 1 0.555183 8.90816e-07 0.132369 -0.000713348 0.000299454 -5.53131e-05
2 1 0.305183 0.166666 0.132369 -0.000688553 -0.000289917 -6.29425e-05
3 1 0.198025 9.12333e-06 0.275226 -0.000137329 0.000101089 -2.67029e-05
4 1 0.948024 0.166658 0.275226 -0.000120163 -9.34601e-05 -3.24249e-05
5 1 0.84084 9.05436e-06 0.418084 2.09808e-05 7.62939e-05 -5.53131e-05
6 1 0.0551821 8.90873e-07 0.132369 -0.000675201 0.000301361 -5.53131e-05
7 1 0.983748 0.500044 0.0609391 -0.00123215 0.000225067 4.3869e-05
8 1 0.805182 0.166666 0.132369 -0.000654221 -0.000293732 -5.14984e-05
9 1 0.733748 0.666623 0.0609392 -0.00119781 -0.000234604 3.8147e-05
10 1 0.698024 9.12339e-06 0.275227 -9.34601e-05 0.000101089 -3.8147e-05
11 1 0.590842 0.166658 0.418084 -3.62396e-05 -7.05719e-05 -4.76837e-05
12 1 0.483661 9.61899e-06 0.560938 -0.000104904 0.000116348 8.96454e-05
13 1 0.23366 0.166657 0.560938 -8.96454e-05 -0.000110626 8.58307e-05
14 1 0.126467 9.05724e-06 0.703794 0.000116348 0.000116348 0.000173569
15 1 0.876467 0.166658 0.703794 0.000131607 -0.000102997 0.000171661
16 1 0.769294 8.3469e-06 0.846658 0.00028801 0.000135422 -0.000192642
17 1 0.626612 0.500009 0.203795 -0.00028801 0.000123978 0.000183105
18 1 0.448026 0.166658 0.275226 -0.000146866 -9.15527e-05 -2.67029e-05
19 1 0.376611 0.666659 0.203795 -0.000259399 -0.000131607 0.000181198
20 1 0.340841 9.05433e-06 0.418084 -3.8147e-06 8.01086e-05 -5.34058e-05
21 1 0.269438 0.500009 0.346658 -0.000120163 0.000108719 -0.000173569
22 1 0.0908402 0.166658 0.418084 9.53674e-06 -7.24792e-05 -5.53131e-05
23 1 0.019437 0.666658 0.346658 -0.000108719 -0.000116348 -0.000171661
24 1 0.983659 9.61904e-06 0.560938 -7.24792e-05 0.000118256 8.39233e-05
25 1 0.912245 0.50001 0.489515 8.7738e-05 0.000108719 -8.2016e-05
26 1 0.733659 0.166657 0.560938 -5.34058e-05 -0.000112534 8.2016e-05
27 1 0.662244 0.666658 0.489515 0.000116348 -0.000116348 -9.34601e-05
28 1 0.48375 0.500044 0.0609391 -0.00125122 0.000217438 4.95911e-05
29 1 0.233749 0.666623 0.0609391 -0.00124359 -0.000232697 4.57764e-05
30 1 0.12661 0.500009 0.203795 -0.000249863 0.000125885 0.000185013
31 1 0.87661 0.666659 0.203795 -0.000242233 -0.000125885 0.000188828
32 1 0.769437 0.500009 0.346658 -8.7738e-05 0.000104904 -0.000169754
33 1 0.519296 0.166659 0.846658 0.000230789 -0.000131607 -0.000181198
34 1 0.412157 4.36883e-05 0.989514 0.00123024 0.000234604 -4.76837e-05
35 1 0.162156 0.166623 0.989514 0.00124359 -0.00022316 -4.3869e-05
36 1 0.626469 9.05716e-06 0.703794 8.2016e-05 0.000114441 0.000177383
37 1 0.555066 0.500009 0.632368 -3.24249e-05 7.62939e-05 5.91278e-05
38 1 0.376468 0.166658 0.703794 0.000106812 -0.000112534 0.000175476
39 1 0.305065 0.666658 0.632368 -1.52588e-05 -7.82013e-05 5.14984e-05
40 1 0.269295 8.34684e-06 0.846658 0.00025177 0.000127792 -0.000183105
41 1 0.197881 0.500009 0.775226 0.000123978 9.72748e-05 2.67029e-05
42 1 0.0192942 0.166659 0.846658 0.000259399 -0.000125885 -0.000190735
43 1 0.94788 0.666658 0.775226 0.000139236 -0.000102997 3.05176e-05
44 1 0.912156 4.36884e-05 0.989514 0.00125313 0.000225067 -4.95911e-05
45 1 0.840722 0.500001 0.918084 0.000715256 0.000289917 4.3869e-05
46 1 0.519438 0.666658 0.346658 -0.000146866 -0.000114441 -0.000169754
47 1 0.412246 0.50001 0.489515 7.05719e-05 0.000102997 -8.2016e-05
48 1 0.162246 0.666658 0.489515 7.43866e-05 -0.000118256 -8.01086e-05
49 1 0.0550641 0.500009 0.632369 5.72205e-06 7.43866e-05 5.72205e-05
50 1 0.805064 0.666658 0.632369 2.47955e-05 -7.82013e-05 4.57764e-05
51 1 0.697879 0.500009 0.775226 0.000164032 9.53674e-05 2.28882e-05
52 1 0.662158 0.166623 0.989514 0.00119781 -0.00022316 -3.43323e-05
53 1 0.590724 0.666666 0.918084 0.000646591 -0.000297546 5.91278e-05
54 1 0.447881 0.666658 0.775226 0.000114441 -9.15527e-05 3.43323e-05
55 1 0.340723 0.500001 0.918084 0.000673294 0.000291824 5.91278e-05
56 1 0.0907223 0.666666 0.918084 0.000686646 -0.000297546 6.10352e-05
ITEM: TIMESTEP
2
ITEM: NUMBER OF ATOMS
56
ITEM: BOX BOUNDS xy xz yz pp pp pp
-4.6777784824371338e-01 1.2186318397521973e+01 0.0000000000000000e+00
-5.5265426635742188e-04 5.5269607901573181e+00 -4.6655929088592529e-01
-1.9019842147827148e-03 1.9021862030029297e+01 0.0000000000000000e+00
ITEM: ATOMS id type xs ys zs fx fy fz
1 1 0.555183 8.9155e-07 0.132369 -0.000707626 0.00030899 -6.10352e-05
2 1 0.305183 0.166666 0.132369 -0.000688553 -0.000295639 -6.29425e-05
3 1 0.198025 9.12358e-06 0.275226 -0.000131607 0.000106812 -4.19617e-05
4 1 0.948024 0.166658 0.275226 -0.000120163 -0.000104904 -4.00543e-05
5 1 0.84084 9.05455e-06 0.418084 2.09808e-05 6.67572e-05 -4.95911e-05
6 1 0.0551821 8.91613e-07 0.132369 -0.000669479 0.000301361 -6.29425e-05
7 1 0.983748 0.500044 0.0609391 -0.00123787 0.000226974 4.3869e-05
8 1 0.805182 0.166666 0.132369 -0.000648499 -0.000297546 -6.29425e-05
9 1 0.733748 0.666623 0.0609392 -0.00121689 -0.000234604 4.19617e-05
10 1 0.698024 9.12364e-06 0.275227 -8.58307e-05 0.000104904 -3.8147e-05
11 1 0.590842 0.166658 0.418084 -3.43323e-05 -6.67572e-05 -4.57764e-05
12 1 0.483661 9.61928e-06 0.560938 -0.000106812 0.000108719 0.000102997
13 1 0.23366 0.166657 0.560938 -8.58307e-05 -0.000102997 9.72748e-05
14 1 0.126467 9.05753e-06 0.703794 0.000123978 0.000120163 0.000165939
15 1 0.876467 0.166658 0.703794 0.000135422 -0.000110626 0.000167847
16 1 0.769294 8.34724e-06 0.846658 0.000291824 0.000127792 -0.00018692
17 1 0.626612 0.500009 0.203795 -0.000297546 0.000123978 0.000177383
18 1 0.448026 0.166658 0.275226 -0.000144958 -9.91821e-05 -4.3869e-05
19 1 0.376611 0.666659 0.203795 -0.000270844 -0.000133514 0.000177383
20 1 0.340841 9.05453e-06 0.418084 -5.72205e-06 7.43866e-05 -5.34058e-05
21 1 0.269438 0.500009 0.346658 -0.0001297 0.000110626 -0.000167847
22 1 0.0908402 0.166658 0.418084 7.62939e-06 -6.67572e-05 -5.34058e-05
23 1 0.019437 0.666658 0.346658 -0.000110626 -0.00012207 -0.000164032
24 1 0.983659 9.61933e-06 0.560938 -7.82013e-05 0.000106812 8.96454e-05
25 1 0.912245 0.50001 0.489515 9.34601e-05 0.000101089 -9.72748e-05
26 1 0.733659 0.166657 0.560938 -5.72205e-05 -9.72748e-05 8.96454e-05
27 1 0.662244 0.666658 0.489515 0.000118256 -0.000104904 -0.000101089
28 1 0.48375 0.500044 0.0609391 -0.00125885 0.00022316 4.76837e-05
29 1 0.233749 0.666623 0.0609391 -0.00125313 -0.000240326 4.95911e-05
30 1 0.12661 0.500009 0.203795 -0.000253677 0.000123978 0.000181198
31 1 0.87661 0.666659 0.203795 -0.000249863 -0.000118256 0.000175476
32 1 0.769437 0.500009 0.346658 -8.58307e-05 0.000110626 -0.000164032
33 1 0.519296 0.166659 0.846658 0.000238419 -0.000123978 -0.000173569
34 1 0.412157 4.36889e-05 0.989514 0.00123405 0.000240326 -4.3869e-05
35 1 0.162156 0.166623 0.989514 0.0012455 -0.000226974 -4.95911e-05
36 1 0.626469 9.05744e-06 0.703794 8.01086e-05 0.000118256 0.000171661
37 1 0.555066 0.500009 0.632368 -3.8147e-05 6.10352e-05 6.10352e-05
38 1 0.376468 0.166658 0.703794 0.000114441 -0.000114441 0.000171661
39 1 0.305065 0.666658 0.632368 -1.14441e-05 -7.05719e-05 5.34058e-05
40 1 0.269295 8.34715e-06 0.846658 0.000253677 0.00012207 -0.000181198
41 1 0.197881 0.500009 0.775226 0.000120163 0.000106812 4.57764e-05
42 1 0.0192942 0.166659 0.846658 0.000270844 -0.000125885 -0.000179291
43 1 0.94788 0.666658 0.775226 0.000135422 -0.000108719 3.24249e-05
44 1 0.912156 4.36889e-05 0.989514 0.00125885 0.000230789 -4.3869e-05
45 1 0.840722 0.500001 0.918084 0.000711441 0.000299454 5.53131e-05
46 1 0.519438 0.666658 0.346658 -0.000152588 -0.000118256 -0.000160217
47 1 0.412246 0.50001 0.489515 7.05719e-05 9.91821e-05 -9.53674e-05
48 1 0.162246 0.666658 0.489515 7.62939e-05 -0.000101089 -9.53674e-05
49 1 0.0550641 0.500009 0.632369 5.72205e-06 6.86646e-05 5.14984e-05
50 1 0.805064 0.666658 0.632369 2.09808e-05 -7.62939e-05 4.19617e-05
51 1 0.697879 0.500009 0.775226 0.000169754 0.000104904 3.8147e-05
52 1 0.662158 0.166623 0.989514 0.00121307 -0.000228882 -3.8147e-05
53 1 0.590724 0.666666 0.918084 0.000646591 -0.000297546 7.05719e-05
54 1 0.447881 0.666658 0.775226 0.000108719 -0.000102997 4.00543e-05
55 1 0.340723 0.500001 0.918084 0.000671387 0.000297546 6.10352e-05
56 1 0.0907223 0.666666 0.918084 0.000694275 -0.000305176 5.53131e-05
ITEM: TIMESTEP
3
ITEM: NUMBER OF ATOMS
56
ITEM: BOX BOUNDS xy xz yz pp pp pp
-4.6843379735946655e-01 1.2186927676200867e+01 0.0000000000000000e+00
-8.2898139953613281e-04 5.5272371172904968e+00 -4.6660596132278442e-01
-2.8529763221740723e-03 1.9022813022136688e+01 0.0000000000000000e+00
ITEM: ATOMS id type xs ys zs fx fy fz
1 1 0.555183 8.92335e-07 0.132369 -0.000705719 0.000305176 -5.72205e-05
2 1 0.305183 0.166666 0.132369 -0.000680923 -0.000291824 -5.72205e-05
3 1 0.198025 9.12385e-06 0.275226 -0.0001297 0.000108719 -3.05176e-05
4 1 0.948024 0.166658 0.275226 -0.000118256 -0.000102997 -3.43323e-05
5 1 0.84084 9.05472e-06 0.418084 2.28882e-05 5.72205e-05 -5.14984e-05
6 1 0.0551821 8.92378e-07 0.132369 -0.000665665 0.000295639 -5.72205e-05
7 1 0.983748 0.500044 0.0609391 -0.00122833 0.000228882 3.8147e-05
8 1 0.805182 0.166666 0.132369 -0.000648499 -0.000297546 -5.53131e-05
9 1 0.733748 0.666623 0.0609392 -0.00119781 -0.000230789 4.3869e-05
10 1 0.698024 9.1239e-06 0.275227 -9.15527e-05 0.000112534 -3.8147e-05
11 1 0.590842 0.166658 0.418084 -2.86102e-05 -5.91278e-05 -4.57764e-05
12 1 0.483661 9.61955e-06 0.560938 -0.000104904 0.000102997 8.7738e-05
13 1 0.23366 0.166657 0.560938 -8.96454e-05 -0.000102997 8.96454e-05
14 1 0.126467 9.05783e-06 0.703794 0.00012207 0.000108719 0.000173569
15 1 0.876467 0.166658 0.703794 0.000125885 -9.53674e-05 0.000179291
16 1 0.769294 8.34756e-06 0.846658 0.000284195 0.000139236 -0.000183105
17 1 0.626612 0.500009 0.203795 -0.000282288 0.000127792 0.000185013
18 1 0.448026 0.166658 0.275226 -0.000139236 -9.91821e-05 -3.62396e-05
19 1 0.376611 0.666659 0.203795 -0.000255585 -0.000131607 0.000181198
20 1 0.340841 9.05471e-06 0.418084 1.90735e-06 6.10352e-05 -4.95911e-05
21 1 0.269438 0.500009 0.346658 -0.00012207 0.000101089 -0.000175476
22 1 0.0908402 0.166658 0.418084 1.14441e-05 -5.72205e-05 -5.72205e-05
23 1 0.019437 0.666658 0.346658 -0.000106812 -0.000106812 -0.000169754
24 1 0.983659 9.6196e-06 0.560938 -7.24792e-05 0.000101089 8.58307e-05
25 1 0.912245 0.50001 0.489515 8.96454e-05 0.000101089 -9.53674e-05
26 1 0.733659 0.166657 0.560938 -4.76837e-05 -9.91821e-05 7.82013e-05
27 1 0.662244 0.666658 0.489515 0.000114441 -0.000106812 -8.96454e-05
28 1 0.48375 0.500044 0.0609391 -0.00124931 0.00021553 4.76837e-05
29 1 0.233749 0.666623 0.0609391 -0.00123787 -0.000234604 4.00543e-05
30 1 0.12661 0.500009 0.203795 -0.000249863 0.000127792 0.000185013
31 1 0.87661 0.666659 0.203795 -0.000236511 -0.000127792 0.000177383
32 1 0.769437 0.500009 0.346658 -8.7738e-05 0.000106812 -0.000169754
33 1 0.519296 0.166659 0.846658 0.000228882 -0.000133514 -0.000177383
34 1 0.412157 4.36895e-05 0.989514 0.00122833 0.000234604 -3.8147e-05
35 1 0.162156 0.166623 0.989514 0.00123978 -0.000230789 -4.00543e-05
36 1 0.626469 9.05774e-06 0.703794 8.2016e-05 0.000110626 0.000175476
37 1 0.555066 0.500009 0.632368 -3.8147e-05 5.91278e-05 5.91278e-05
38 1 0.376468 0.166658 0.703794 0.000110626 -0.000104904 0.000173569
39 1 0.305065 0.666658 0.632368 -7.62939e-06 -5.72205e-05 5.34058e-05
40 1 0.269295 8.34746e-06 0.846658 0.000249863 0.0001297 -0.000175476
41 1 0.197881 0.500009 0.775226 0.000116348 0.000101089 3.62396e-05
42 1 0.0192942 0.166659 0.846658 0.000257492 -0.000118256 -0.000183105
43 1 0.94788 0.666658 0.775226 0.000125885 -0.000110626 3.43323e-05
44 1 0.912156 4.36895e-05 0.989514 0.00124931 0.00022316 -4.57764e-05
45 1 0.840722 0.500001 0.918084 0.000701904 0.000299454 4.76837e-05
46 1 0.519438 0.666658 0.346658 -0.000139236 -0.000112534 -0.000169754
47 1 0.412246 0.50001 0.489515 6.67572e-05 9.34601e-05 -8.7738e-05
48 1 0.162246 0.666658 0.489515 7.43866e-05 -0.000106812 -8.96454e-05
49 1 0.0550641 0.500009 0.632369 -1.90735e-06 5.91278e-05 4.57764e-05
50 1 0.805064 0.666658 0.632369 1.33514e-05 -6.48499e-05 4.57764e-05
51 1 0.697879 0.500009 0.775226 0.00015831 9.91821e-05 2.67029e-05
52 1 0.662158 0.166623 0.989514 0.00119591 -0.000225067 -4.19617e-05
53 1 0.590724 0.666666 0.918084 0.000640869 -0.000301361 6.48499e-05
54 1 0.447881 0.666658 0.775226 0.000104904 -0.000102997 3.8147e-05
55 1 0.340723 0.500001 0.918084 0.000665665 0.000295639 5.72205e-05
56 1 0.0907223 0.666666 0.918084 0.000680923 -0.000293732 5.14984e-05
ITEM: TIMESTEP
4
ITEM: NUMBER OF ATOMS
56
ITEM: BOX BOUNDS xy xz yz pp pp pp
-4.6908968687057495e-01 1.2187536954879761e+01 0.0000000000000000e+00
-1.1053085327148438e-03 5.5275134444236755e+00 -4.6665257215499878e-01
-3.8039684295654297e-03 1.9023764014244080e+01 0.0000000000000000e+00
ITEM: ATOMS id type xs ys zs fx fy fz
1 1 0.555183 8.93138e-07 0.132369 -0.000711441 0.000303268 -4.95911e-05
2 1 0.305183 0.166666 0.132369 -0.000682831 -0.000293732 -5.72205e-05
3 1 0.198025 9.12414e-06 0.275226 -0.000131607 0.000104904 -3.8147e-05
4 1 0.948024 0.166658 0.275226 -0.000127792 -9.91821e-05 -2.86102e-05
5 1 0.84084 9.05487e-06 0.418084 2.28882e-05 6.29425e-05 -4.3869e-05
6 1 0.0551821 8.93156e-07 0.132369 -0.000675201 0.000305176 -5.53131e-05
7 1 0.983748 0.500044 0.0609391 -0.00122833 0.000228882 3.43323e-05
8 1 0.805182 0.166666 0.132369 -0.000650406 -0.000299454 -4.76837e-05
9 1 0.733748 0.666623 0.0609392 -0.00119209 -0.000225067 4.3869e-05
10 1 0.698024 9.1242e-06 0.275227 -9.34601e-05 0.000104904 -3.43323e-05
11 1 0.590842 0.166658 0.418084 -2.67029e-05 -6.48499e-05 -3.62396e-05
12 1 0.483661 9.61983e-06 0.560938 -0.000106812 0.000110626 8.39233e-05
13 1 0.23366 0.166657 0.560938 -9.91821e-05 -0.000104904 8.58307e-05
14 1 0.126467 9.05812e-06 0.703794 0.000125885 0.000116348 0.000167847
15 1 0.876467 0.166658 0.703794 0.000143051 -9.91821e-05 0.000165939
16 1 0.769294 8.34793e-06 0.846658 0.00028801 0.000139236 -0.000181198
17 1 0.626612 0.500009 0.203795 -0.000293732 0.0001297 0.000181198
18 1 0.448026 0.166658 0.275226 -0.000144958 -9.34601e-05 -3.24249e-05
19 1 0.376611 0.666659 0.203795 -0.000261307 -0.000139236 0.000181198
20 1 0.340841 9.05487e-06 0.418084 1.90735e-06 7.43866e-05 -3.8147e-05
21 1 0.269438 0.500009 0.346658 -0.000133514 0.000102997 -0.000165939
22 1 0.0908402 0.166658 0.418084 1.33514e-05 -6.67572e-05 -4.00543e-05
23 1 0.019437 0.666658 0.346658 -0.000118256 -0.000104904 -0.000164032
24 1 0.983659 9.61987e-06 0.560938 -7.82013e-05 0.000104904 7.82013e-05
25 1 0.912245 0.50001 0.489515 8.96454e-05 0.000106812 -8.39233e-05
26 1 0.733659 0.166657 0.560938 -5.72205e-05 -0.000101089 7.43866e-05
27 1 0.662244 0.666658 0.489515 0.000118256 -0.000114441 -9.15527e-05
28 1 0.48375 0.500044 0.0609391 -0.00125504 0.000219345 4.00543e-05
29 1 0.233749 0.666623 0.0609391 -0.00123024 -0.000238419 4.19617e-05
30 1 0.12661 0.500009 0.203795 -0.000253677 0.0001297 0.000177383
31 1 0.87661 0.666659 0.203795 -0.000244141 -0.000131607 0.000181198
32 1 0.769437 0.500009 0.346658 -9.91821e-05 9.91821e-05 -0.000164032
33 1 0.519296 0.166659 0.846658 0.000226974 -0.000127792 -0.000177383
34 1 0.412157 4.36901e-05 0.989514 0.0012207 0.000236511 -3.8147e-05
35 1 0.162156 0.166623 0.989514 0.00123405 -0.000226974 -4.19617e-05
36 1 0.626469 9.05803e-06 0.703794 8.58307e-05 0.000106812 0.000169754
37 1 0.555066 0.500009 0.632368 -4.19617e-05 6.10352e-05 5.14984e-05
38 1 0.376468 0.166658 0.703794 0.000114441 -0.000106812 0.000162125
39 1 0.305065 0.666658 0.632368 -5.72205e-06 -7.24792e-05 4.3869e-05
40 1 0.269295 8.3478e-06 0.846658 0.000249863 0.000137329 -0.000177383
41 1 0.197881 0.500009 0.775226 0.000125885 9.72748e-05 3.43323e-05
42 1 0.0192942 0.166659 0.846658 0.000259399 -0.000125885 -0.000183105
43 1 0.94788 0.666658 0.775226 0.0001297 -0.000101089 3.43323e-05
44 1 0.912156 4.36901e-05 0.989514 0.00124931 0.000228882 -4.00543e-05
45 1 0.840722 0.500001 0.918084 0.000711441 0.000293732 4.57764e-05
46 1 0.519438 0.666658 0.346658 -0.000148773 -0.000106812 -0.000164032
47 1 0.412246 0.50001 0.489515 7.43866e-05 9.91821e-05 -8.2016e-05
48 1 0.162246 0.666658 0.489515 8.01086e-05 -0.000106812 -8.2016e-05
49 1 0.0550641 0.500009 0.632369 1.90735e-06 6.48499e-05 3.43323e-05
50 1 0.805064 0.666658 0.632369 2.28882e-05 -7.05719e-05 3.8147e-05
51 1 0.697879 0.500009 0.775226 0.000175476 9.91821e-05 2.47955e-05
52 1 0.662158 0.166623 0.989514 0.00119781 -0.000226974 -4.76837e-05
53 1 0.590724 0.666666 0.918084 0.000650406 -0.00030899 5.91278e-05
54 1 0.447881 0.666658 0.775226 0.000114441 -9.53674e-05 3.62396e-05
55 1 0.340723 0.500001 0.918084 0.000673294 0.000293732 6.10352e-05
56 1 0.0907223 0.666666 0.918084 0.00069046 -0.00030899 5.34058e-05
ITEM: TIMESTEP
5
ITEM: NUMBER OF ATOMS
56
ITEM: BOX BOUNDS xy xz yz pp pp pp
-4.6974563598632812e-01 1.2188146233558655e+01 0.0000000000000000e+00
-1.3816356658935547e-03 5.5277897715568542e+00 -4.6669924259185791e-01
-4.7549605369567871e-03 1.9024715006351471e+01 0.0000000000000000e+00
ITEM: ATOMS id type xs ys zs fx fy fz
1 1 0.555183 8.93966e-07 0.132369 -0.000707626 0.000305176 -4.3869e-05
2 1 0.305183 0.166666 0.132369 -0.000680923 -0.000295639 -5.14984e-05
3 1 0.198025 9.12442e-06 0.275226 -0.000141144 0.000108719 -3.05176e-05
4 1 0.948024 0.166658 0.275226 -0.000139236 -0.000102997 -3.05176e-05
5 1 0.84084 9.05504e-06 0.418084 1.90735e-05 7.05719e-05 -4.95911e-05
6 1 0.0551821 8.93989e-07 0.132369 -0.000677109 0.000303268 -4.76837e-05
7 1 0.983748 0.500044 0.0609391 -0.00123215 0.000219345 4.76837e-05
8 1 0.805182 0.166666 0.132369 -0.000648499 -0.000303268 -5.14984e-05
9 1 0.733748 0.666623 0.0609392 -0.00120354 -0.000228882 4.76837e-05
10 1 0.698024 9.12449e-06 0.275227 -0.000102997 0.000114441 -2.86102e-05
11 1 0.590842 0.166658 0.418084 -3.24249e-05 -6.86646e-05 -4.19617e-05
12 1 0.483661 9.62013e-06 0.560938 -0.000106812 0.000120163 9.91821e-05
13 1 0.23366 0.166657 0.560938 -9.53674e-05 -0.000108719 9.34601e-05
14 1 0.126467 9.05844e-06 0.703794 0.000125885 0.000123978 0.000169754
15 1 0.876467 0.166658 0.703794 0.000137329 -0.000112534 0.000171661
16 1 0.769294 8.34831e-06 0.846658 0.000286102 0.000131607 -0.000185013
17 1 0.626612 0.500009 0.203795 -0.000286102 0.000120163 0.000183105
18 1 0.448026 0.166658 0.275226 -0.000152588 -9.91821e-05 -2.86102e-05
19 1 0.376611 0.666659 0.203795 -0.000255585 -0.000127792 0.000179291
20 1 0.340841 9.05508e-06 0.418084 1.90735e-06 7.82013e-05 -4.95911e-05
21 1 0.269438 0.500009 0.346658 -0.0001297 0.000118256 -0.000171661
22 1 0.0908402 0.166658 0.418084 1.14441e-05 -7.24792e-05 -4.76837e-05
23 1 0.019437 0.666658 0.346658 -0.000114441 -0.00012207 -0.000169754
24 1 0.983659 9.62016e-06 0.560938 -8.2016e-05 0.000114441 9.15527e-05
25 1 0.912245 0.50001 0.489515 9.15527e-05 0.000108719 -9.53674e-05
26 1 0.733659 0.166657 0.560938 -6.10352e-05 -0.000110626 8.39233e-05
27 1 0.662244 0.666658 0.489515 0.000120163 -0.00012207 -9.15527e-05
28 1 0.48375 0.500044 0.0609391 -0.00126076 0.000211716 4.76837e-05
29 1 0.233749 0.666623 0.0609391 -0.00124168 -0.000219345 4.57764e-05
30 1 0.12661 0.500009 0.203795 -0.000247955 0.000123978 0.000181198
31 1 0.87661 0.666659 0.203795 -0.000242233 -0.000120163 0.000173569
32 1 0.769437 0.500009 0.346658 -9.15527e-05 0.00012207 -0.000167847
33 1 0.519296 0.166659 0.846658 0.000234604 -0.00012207 -0.000175476
34 1 0.412157 4.36908e-05 0.989514 0.00123405 0.00021553 -4.95911e-05
35 1 0.162156 0.166623 0.989514 0.00123978 -0.000211716 -4.19617e-05
36 1 0.626469 9.05833e-06 0.703794 8.7738e-05 0.000114441 0.000165939
37 1 0.555066 0.500009 0.632368 -4.00543e-05 6.86646e-05 5.72205e-05
38 1 0.376468 0.166658 0.703794 0.000116348 -0.000116348 0.000167847
39 1 0.305065 0.666658 0.632368 -9.53674e-06 -8.2016e-05 5.14984e-05
40 1 0.269295 8.34818e-06 0.846658 0.000249863 0.00012207 -0.000181198
41 1 0.197881 0.500009 0.775226 0.000125885 0.000101089 2.86102e-05
42 1 0.0192942 0.166659 0.846658 0.000263214 -0.000123978 -0.000181198
43 1 0.94788 0.666658 0.775226 0.000139236 -0.000106812 2.67029e-05
44 1 0.912156 4.36907e-05 0.989514 0.00125885 0.000219345 -4.95911e-05
45 1 0.840722 0.500001 0.918084 0.000705719 0.000299454 3.24249e-05
46 1 0.519438 0.666658 0.346658 -0.000148773 -0.000123978 -0.000167847
47 1 0.412246 0.50001 0.489515 7.43866e-05 0.000106812 -9.15527e-05
48 1 0.162246 0.666658 0.489515 8.39233e-05 -0.000108719 -8.7738e-05
49 1 0.0550641 0.500009 0.632369 1.90735e-06 7.05719e-05 4.76837e-05
50 1 0.805064 0.666658 0.632369 2.28882e-05 -8.01086e-05 4.19617e-05
51 1 0.697879 0.500009 0.775226 0.000169754 0.000102997 3.05176e-05
52 1 0.662158 0.166623 0.989514 0.00119781 -0.000219345 -4.57764e-05
53 1 0.590724 0.666666 0.918084 0.000650406 -0.000299454 6.10352e-05
54 1 0.447881 0.666658 0.775226 0.000116348 -0.000102997 2.67029e-05
55 1 0.340723 0.500001 0.918084 0.000675201 0.000297546 5.14984e-05
56 1 0.0907223 0.666666 0.918084 0.00069046 -0.000301361 4.95911e-05
ITEM: TIMESTEP
6
ITEM: NUMBER OF ATOMS
56
ITEM: BOX BOUNDS xy xz yz pp pp pp
-4.7040158510208130e-01 1.2188755512237549e+01 0.0000000000000000e+00
-1.6579627990722656e-03 5.5280660986900330e+00 -4.6674591302871704e-01
-5.7059526443481445e-03 1.9025665998458862e+01 0.0000000000000000e+00
ITEM: ATOMS id type xs ys zs fx fy fz
1 1 0.555183 8.94832e-07 0.132369 -0.000705719 0.000305176 -4.76837e-05
2 1 0.305183 0.166666 0.132369 -0.000688553 -0.000293732 -4.19617e-05
3 1 0.198025 9.12473e-06 0.275226 -0.0001297 9.91821e-05 -3.24249e-05
4 1 0.948024 0.166658 0.275226 -0.000118256 -9.15527e-05 -3.43323e-05
5 1 0.84084 9.05524e-06 0.418084 2.09808e-05 6.10352e-05 -5.53131e-05
6 1 0.0551821 8.9485e-07 0.132369 -0.000675201 0.000301361 -4.95911e-05
7 1 0.983748 0.500044 0.0609391 -0.00124359 0.000228882 3.43323e-05
8 1 0.805182 0.166666 0.132369 -0.000646591 -0.000297546 -4.3869e-05
9 1 0.733748 0.666623 0.0609392 -0.00121117 -0.000234604 4.00543e-05
10 1 0.698024 9.12481e-06 0.275227 -8.96454e-05 9.72748e-05 -4.00543e-05
11 1 0.590842 0.166658 0.418084 -1.90735e-05 -6.67572e-05 -5.14984e-05
12 1 0.483661 9.62047e-06 0.560938 -0.000106812 0.000108719 9.53674e-05
13 1 0.23366 0.166657 0.560938 -8.7738e-05 -0.000102997 8.96454e-05
14 1 0.126467 9.05879e-06 0.703794 0.00012207 0.000102997 0.000171661
15 1 0.876467 0.166658 0.703794 0.000135422 -9.53674e-05 0.000173569
16 1 0.769294 8.34868e-06 0.846658 0.000295639 0.000123978 -0.000192642
17 1 0.626612 0.500009 0.203795 -0.000295639 0.00012207 0.000183105
18 1 0.448026 0.166658 0.275226 -0.000141144 -8.7738e-05 -3.43323e-05
19 1 0.376611 0.666659 0.203795 -0.000268936 -0.000127792 0.000188828
20 1 0.340841 9.0553e-06 0.418084 -3.8147e-06 6.67572e-05 -4.76837e-05
21 1 0.269438 0.500009 0.346658 -0.000127792 9.72748e-05 -0.000177383
22 1 0.0908402 0.166658 0.418084 7.62939e-06 -6.29425e-05 -4.95911e-05
23 1 0.019437 0.666658 0.346658 -0.000110626 -0.000102997 -0.000167847
24 1 0.983659 9.62048e-06 0.560938 -7.82013e-05 0.000102997 8.39233e-05
25 1 0.912245 0.50001 0.489515 8.58307e-05 0.000104904 -8.96454e-05
26 1 0.733659 0.166657 0.560938 -5.91278e-05 -9.53674e-05 7.82013e-05
27 1 0.662244 0.666658 0.489515 0.000120163 -9.91821e-05 -8.39233e-05
28 1 0.48375 0.500044 0.0609391 -0.00125694 0.000221252 4.95911e-05
29 1 0.233749 0.666623 0.0609391 -0.00124168 -0.000232697 4.76837e-05
30 1 0.12661 0.500009 0.203795 -0.000255585 0.000120163 0.000183105
31 1 0.87661 0.666659 0.203795 -0.000249863 -0.000125885 0.000185013
32 1 0.769437 0.500009 0.346658 -8.96454e-05 0.000102997 -0.000169754
33 1 0.519296 0.166659 0.846658 0.000238419 -0.000123978 -0.000181198
34 1 0.412157 4.36914e-05 0.989514 0.00123787 0.000232697 -4.00543e-05
35 1 0.162156 0.166623 0.989514 0.0012455 -0.000232697 -5.14984e-05
36 1 0.626469 9.05865e-06 0.703794 8.01086e-05 0.000104904 0.000175476
37 1 0.555066 0.500009 0.632368 -3.24249e-05 6.10352e-05 5.72205e-05
38 1 0.376468 0.166658 0.703794 0.000110626 -9.72748e-05 0.000171661
39 1 0.305065 0.666658 0.632368 -1.14441e-05 -6.67572e-05 5.34058e-05
40 1 0.269295 8.34852e-06 0.846658 0.000253677 0.000125885 -0.000183105
41 1 0.197881 0.500009 0.775226 0.000118256 0.000101089 3.05176e-05
42 1 0.0192942 0.166659 0.846658 0.000268936 -0.000123978 -0.000179291
43 1 0.94788 0.666658 0.775226 0.000127792 -9.72748e-05 3.05176e-05
44 1 0.912156 4.36914e-05 0.989514 0.00125313 0.000228882 -4.57764e-05
45 1 0.840722 0.500001 0.918084 0.000705719 0.000295639 4.00543e-05
46 1 0.519438 0.666658 0.346658 -0.000141144 -0.000102997 -0.000173569
47 1 0.412246 0.50001 0.489515 7.05719e-05 8.96454e-05 -8.7738e-05
48 1 0.162246 0.666658 0.489515 8.2016e-05 -0.000104904 -8.2016e-05
49 1 0.0550641 0.500009 0.632369 5.72205e-06 6.29425e-05 4.76837e-05
50 1 0.805064 0.666658 0.632369 1.33514e-05 -7.24792e-05 4.57764e-05
51 1 0.697879 0.500009 0.775226 0.00015831 9.72748e-05 3.62396e-05
52 1 0.662158 0.166623 0.989514 0.00121307 -0.000226974 -3.8147e-05
53 1 0.590724 0.666666 0.918084 0.000642776 -0.000297546 5.14984e-05
54 1 0.447881 0.666658 0.775226 0.000104904 -9.91821e-05 3.8147e-05
55 1 0.340723 0.500001 0.918084 0.000675201 0.000295639 4.76837e-05
56 1 0.0907223 0.666666 0.918084 0.000692368 -0.000299454 4.19617e-05
ITEM: TIMESTEP
7
ITEM: NUMBER OF ATOMS
56
ITEM: BOX BOUNDS xy xz yz pp pp pp
-4.7105747461318970e-01 1.2189364790916443e+01 0.0000000000000000e+00
-1.9342899322509766e-03 5.5283424258232117e+00 -4.6679252386093140e-01
-6.6569447517395020e-03 1.9026616990566254e+01 0.0000000000000000e+00
ITEM: ATOMS id type xs ys zs fx fy fz
1 1 0.555183 8.95732e-07 0.132369 -0.000722885 0.000301361 -5.91278e-05