LAMMPS (4 May 2022)
## variable
variable        temp            equal 500
variable        eql_step        equal 500000
variable        rd_seed         equal 1

variable        temp_damp       equal 0.2 # tau_NVT = timestep * 100
variable        t_step          equal 0.002
variable        rlx_step        equal 20000

variable        thermo_freq     equal 100
variable        dump_freq       equal 100

## units
dimension       3
boundary        p p p
units           metal
atom_style      atomic
neighbor        1.0 bin
neigh_modify    every 10 delay 0 check no

## data.lmp, potential
read_data       data.lmp
Reading data file ...
  orthogonal box = (0 0 0) to (26.25021 26.25021 25.3108)
  1 by 1 by 1 MPI processor grid
  reading atoms ...
  900 atoms
  read_data CPU = 0.001 seconds
pair_style      nvnmd model.pb
pair_coeff * *

## velocity, timestep
velocity        all create ${temp} ${rd_seed} loop geom
velocity        all create 500 ${rd_seed} loop geom
velocity        all create 500 1 loop geom
timestep        ${t_step}
timestep        0.002

## nvt-relax
fix             equil all nvt temp ${temp} ${temp} ${temp_damp}
fix             equil all nvt temp 500 ${temp} ${temp_damp}
fix             equil all nvt temp 500 500 ${temp_damp}
fix             equil all nvt temp 500 500 0.2
run             ${rlx_step}
run             20000
Generated 0 of 6 mixed pair_coeff terms from geometric mixing rule
Neighbor list info ...
  update every 10 steps, delay 0 steps, check no
  max neighbors/atom: 2000, page size: 100000
  master list distance cutoff = 8
  ghost atom cutoff = 8
  binsize = 4, bins = 7 7 7
  1 neighbor lists, perpetual/occasional/extra = 1 0 0
  (1) pair nvnmd, perpetual
      attributes: full, newton on
      pair build: full/bin/atomonly
      stencil: full/bin/3d
      bin: standard
Per MPI rank memory allocation (min/avg/max) = 3.057 | 3.057 | 3.057 Mbytes
   Step          Temp          E_pair         E_mol          TotEng         Press     
         0   500            200.16062      0              258.26305      13816.484    
     20000   497.59636      253.0057       0              310.82882      15105.414    
Loop time of 12.2583 on 1 procs for 20000 steps with 900 atoms

Performance: 281.931 ns/day, 0.085 hours/ns, 1631.548 timesteps/s
54.7% CPU use with 1 MPI tasks x no OpenMP threads

MPI task timing breakdown:
Section |  min time  |  avg time  |  max time  |%varavg| %total
---------------------------------------------------------------
Pair    | 7.8056     | 7.8056     | 7.8056     |   0.0 | 63.68
Neigh   | 4.1571     | 4.1571     | 4.1571     |   0.0 | 33.91
Comm    | 0.1411     | 0.1411     | 0.1411     |   0.0 |  1.15
Output  | 1.6799e-05 | 1.6799e-05 | 1.6799e-05 |   0.0 |  0.00
Modify  | 0.12908    | 0.12908    | 0.12908    |   0.0 |  1.05
Other   |            | 0.02537    |            |       |  0.21

Nlocal:            900 ave         900 max         900 min
Histogram: 1 0 0 0 0 0 0 0 0 0
Nghost:           2805 ave        2805 max        2805 min
Histogram: 1 0 0 0 0 0 0 0 0 0
Neighs:              0 ave           0 max           0 min
Histogram: 1 0 0 0 0 0 0 0 0 0
FullNghs:        99520 ave       99520 max       99520 min
Histogram: 1 0 0 0 0 0 0 0 0 0

Total # of neighbors = 99520
Ave neighs/atom = 110.57778
Neighbor list builds = 2000
Dangerous builds not checked
unfix           equil

## nvt-equal
reset_timestep  0
fix             equil all nvt temp ${temp} ${temp} ${temp_damp}
fix             equil all nvt temp 500 ${temp} ${temp_damp}
fix             equil all nvt temp 500 500 ${temp_damp}
fix             equil all nvt temp 500 500 0.2
fix             com all recenter INIT INIT INIT

## thermo_style
thermo_style    custom step time temp ke etotal press
thermo          ${thermo_freq}
thermo          100
thermo_modify   flush yes
dump            1 all custom ${dump_freq} dump.lammpstraj id type x y z
dump            1 all custom 100 dump.lammpstraj id type x y z
run             500000
Generated 0 of 6 mixed pair_coeff terms from geometric mixing rule
Per MPI rank memory allocation (min/avg/max) = 4.341 | 4.341 | 4.341 Mbytes
   Step          Time           Temp          KinEng         TotEng         Press     
         0   0              497.59636      57.823121      310.82882      15105.414    
       100   0.2            503.05854      58.457853      310.87723      16077.687    
       200   0.4            509.13006      59.163392      309.6549       13777.471    
       300   0.6            489.88141      56.926606      306.37749      15104.775    
       400   0.8            486.56763      56.541528      306.30549      13317.61     
       500   1              493.15176      57.306636      309.80926      15205.878    
       600   1.2            483.2811       56.159617      311.28939      15304.698    
       700   1.4            497.49472      57.811309      310.87823      14909.392    
       800   1.6            502.82083      58.430229      310.11287      15145.595    
       900   1.8            488.34626      56.748214      307.87107      14590.96     
      1000   2              482.26664      56.041733      305.3095       13971.328    
      1100   2.2            493.78533      57.380261      307.55445      13588.989    
      1200   2.4            503.84979      58.549799      310.62018      15606.313    
      1300   2.6            515.11605      59.858994      310.98673      13364.253    
      1400   2.8            512.99737      59.612793      310.85423      15419.096    
      1500   3              493.70461      57.37088       309.98568      16400.611    
      1600   3.2            482.79048      56.102605      307.48913      14295.27     
      1700   3.4            490.52303      57.001165      306.13577      15014.732    
      1800   3.6            502.61482      58.40629       308.93989      15085.801    
      1900   3.8            511.03131      59.384327      312.0816       13406.522    
      2000   4              505.51197      58.742953      311.83865      15804.323    
      2100   4.2            506.46531      58.853736      310.78818      14647.882    
      2200   4.4            498.3439       57.909989      308.30434      15987.457    
      2300   4.6            483.90118      56.231674      305.69061      15178.218    
      2400   4.8            480.36534      55.820792      308.4717       14543.88     
      2500   5              503.38984      58.496352      311.87285      15506.27     
      2600   5.2            499.55046      58.050197      311.72423      16893.82     
      2700   5.4            497.49292      57.811101      310.2221       16218.993    
      2800   5.6            503.0593       58.45794       307.73211      14609.116    
      2900   5.8            482.29586      56.045128      307.49388      16531.743    
      3000   6              497.29709      57.788344      311.58351      16155.902    
      3100   6.2            521.2087       60.56699       313.11062      15578.525    
      3200   6.4            510.562        59.329791      311.90224      15207.773    
      3300   6.6            487.60785      56.662407      308.71847      15847.671    
      3400   6.8            492.16967      57.192512      307.51078      13153.026    
      3500   7              492.06001      57.17977       308.63642      13752.283    
      3600   7.2            506.92751      58.907445      310.0306       15192.484    
      3700   7.4            506.30635      58.835264      311.01752      14437.974    
      3800   7.6            510.91405      59.370701      311.35649      15190.963    
      3900   7.8            487.23494      56.619073      308.48628      14270.336    
      4000   8              482.70559      56.09274       305.8127       15484.706    
      4100   8.2            477.10494      55.441918      307.5318       14459.962    
      4200   8.4            500.49379      58.159816      310.47599      14939.457    
      4300   8.6            500.97396      58.215614      311.22547      15327.544    
      4400   8.8            497.00281      57.754147      310.5929       14875.097    
      4500   9              491.79585      57.149073      308.67915      15756.854    
      4600   9.2            487.94873      56.702019      305.09764      13101.92     
      4700   9.4            479.45318      55.714795      303.61976      15244.66     
      4800   9.6            503.79666      58.543626      308.72102      15586.874    
      4900   9.8            499.30488      58.021658      310.58583      13547.233    
      5000   10             503.6868       58.530859      311.13598      16257.206    
      5100   10.2           501.44814      58.270716      311.08508      14402.978    
      5200   10.4           481.65716      55.970908      308.97022      13627.655    
      5300   10.6           484.089        56.253499      306.46111      13797.671    
      5400   10.8           495.17906      57.542218      307.08757      14353.813    
      5500   11             500.74086      58.188526      311.81499      15300.35     
      5600   11.2           492.21084      57.197297      312.10663      15974.778    
      5700   11.4           511.08713      59.390814      310.65178      13451.839    
      5800   11.6           477.6812       55.508882      308.60925      14973.648    
      5900   11.8           502.01129      58.336157      308.03547      13897.993    
      6000   12             504.5252       58.628286      309.17985      13795.213    
      6100   12.2           510.14029      59.280786      312.11632      16197.887    
      6200   12.4           498.64732      57.945247      312.82927      14813.147    
      6300   12.6           507.81786      59.010909      310.94652      16262.554    
      6400   12.8           493.65615      57.365249      307.3826       14251.163    
      6500   13             486.39001      56.520888      307.46035      15474.348    
      6600   13.2           498.08331      57.879707      309.55758      15698.9      
      6700   13.4           499.41168      58.034069      310.2575       16125.276    
      6800   13.6           493.22225      57.314828      310.17252      17177.701    
      6900   13.8           487.34229      56.631548      310.71711      15041.354    
      7000   14             515.16168      59.864296      313.09008      15395.547    
      7100   14.2           531.71842      61.78827       315.11762      13301.692    
      7200   14.4           508.74499      59.118646      313.13006      14610.998    
      7300   14.6           494.47873      57.460837      309.63592      13404.078    
      7400   14.8           474.56082      55.146279      308.71498      14264.476    
      7500   15             498.94561      57.97991       309.15093      14336.937    
      7600   15.2           515.61928      59.917472      312.17057      13438.553    
      7700   15.4           514.76003      59.817622      314.43167      14873.31     
      7800   15.6           505.11231      58.69651       312.90423      14666.311    
      7900   15.8           512.18409      59.518286      311.15639      14400.436    
      8000   16             505.37306      58.726811      310.4764       16408.7      
      8100   16.2           492.79868      57.265607      309.70652      13277.027    
      8200   16.4           477.02016      55.432066      308.3528       15670.681    
      8300   16.6           494.17623      57.425684      307.68556      15400.524    
      8400   16.8           493.24823      57.317846      309.51748      14646.987    
      8500   17             532.57984      61.888371      312.67517      14801.713    
      8600   17.2           503.56607      58.51683       312.48945      14964.498    
      8700   17.4           484.95059      56.35362       309.62137      16787.882    
      8800   17.6           487.11639      56.605297      307.74821      14445.201    
      8900   17.8           490.40409      56.987344      308.49071      15481.183    
      9000   18             500.46386      58.156338      309.73864      15428.038    
      9100   18.2           527.28414      61.272985      311.3765       12989.454    
      9200   18.4           498.47415      57.925124      312.83746      14073.123    
      9300   18.6           507.07341      58.9244        313.89312      16038.106    
      9400   18.8           518.86177      60.294265      313.24543      14467.986    
      9500   19             487.92037      56.698723      310.65838      15423.857    
      9600   19.2           485.17683      56.379911      309.44612      15874.169    
      9700   19.4           476.55953      55.378538      310.13741      14682.828    
      9800   19.6           510.77119      59.354099      314.17844      15474.29     
      9900   19.8           519.42365      60.359558      314.74126      14542.924    
     10000   20             514.32761      59.767373      312.46169      16213.17     
     10100   20.2           484.70719      56.325336      310.60665      17352.35     
     10200   20.4           497.59632      57.823116      310.49157      12770.465    
     10300   20.6           502.1655       58.354077      310.70493      16562.25     
     10400   20.8           495.29219      57.555364      311.45429      13865.083    
     10500   21             502.62601      58.40759       312.36275      15975.274    
     10600   21.2           504.23084      58.594079      312.05007      14224.138    
     10700   21.4           491.96169      57.168344      310.45897      16018.968    
     10800   21.6           495.38653      57.566327      308.6406       13829.009    
     10900   21.8           492.58935      57.241281      308.77457      14017.202    
     11000   22             485.08901      56.369706      312.49768      15715.899    
     11100   22.2           512.97757      59.610492      313.98853      14678.331    
     11200   22.4           508.35009      59.072756      312.41297      13890.808    
     11300   22.6           508.07279      59.040532      309.79909      15044.045    
     11400   22.8           512.9316       59.605151      308.83077      14410.525    
     11500   23             485.21845      56.384747      309.48067      15729.792    
     11600   23.2           512.13933      59.513085      310.25514      14553.187    
     11700   23.4           521.11578      60.556191      311.78384      13148.151    
     11800   23.6           495.54811      57.585104      312.09349      13560.903    
     11900   23.8           502.19566      58.357582      312.3817       15813.746    
     12000   24             496.84963      57.736347      311.38721      12538.828    
     12100   24.2           492.60568      57.243179      309.08118      14082.585    
     12200   24.4           489.89178      56.927811      307.94207      14749.526    
     12300   24.6           486.08671      56.485644      308.91422      14048.685    
     12400   24.8           497.16889      57.773447      312.8447       15172.262    
     12500   25             513.78769      59.704632      313.93882      15014.213    
     12600   25.2           510.20733      59.288577      311.52899      15902.53     
     12700   25.4           495.73497      57.606818      309.44156      15334.672    
     12800   25.6           480.06759      55.786193      309.30854      14672.512    
     12900   25.8           491.52546      57.117653      309.45473      15157.493    
     13000   26             506.7378       58.885401      310.54477      15616.37     
     13100   26.2           504.03849      58.571727      314.64198      16239.224    
     13200   26.4           529.05101      61.478304      314.53185      14668.213    
     13300   26.6           502.58637      58.402984      311.77823      14909.545    
     13400   26.8           493.06818      57.296924      310.77743      16590.73     
     13500   27             498.97417      57.983228      310.09881      15053.11     
     13600   27.2           499.1956       58.00896       309.30413      15445.004    
     13700   27.4           488.92548      56.815522      307.00093      15450.602    
     13800   27.6           486.60139      56.545451      305.42681      13313.048    
     13900   27.8           493.04846      57.294633      307.77107      13159.958    
     14000   28             499.48245      58.042293      311.04308      16316.46     
     14100   28.2           510.99738      59.380384      311.51188      13438.077    
     14200   28.4           504.29132      58.601108      310.46554      16118.656    
     14300   28.6           492.3322       57.211399      307.39307      13837.795    
     14400   28.8           468.2225       54.409735      305.58146      15574.547    
     14500   29             498.51524      57.929899      309.00835      15219.831    
     14600   29.2           514.29423      59.763494      311.86307      15933.041    
     14700   29.4           502.25993      58.36505       311.68096      14128.612    
     14800   29.6           497.60577      57.824214      310.05326      14615.631    
     14900   29.8           494.10606      57.41753       307.70127      16549.294    
     15000   30             476.66192      55.390437      306.29167      12866.118    
     15100   30.2           494.20042      57.428496      309.21395      15799.295    
     15200   30.4           495.18804      57.543262      312.42339      15626.835    
     15300   30.6           496.98865      57.752501      312.63307      13674.411    
     15400   30.8           496.55769      57.702422      310.34595      14148.931    
     15500   31             490.17026      56.960171      308.32996      16466.474    
     15600   31.2           486.86693      56.576308      306.39818      14378.968    
     15700   31.4           478.43544      55.596528      305.08296      15467.597    
     15800   31.6           489.56695      56.890064      307.50134      15569.764    
     15900   31.8           490.46423      56.994332      310.82214      14445.585    
     16000   32             501.35445      58.259829      312.25612      15640.378    
     16100   32.2           511.87594      59.482477      312.15686      15304.763    
     16200   32.4           498.91969      57.976898      308.67707      12600.454    
     16300   32.6           469.99072      54.615211      307.30395      15142.361    
     16400   32.8           512.63496      59.570679      308.73757      13253.522    
     16500   33             499.97626      58.099677      309.96927      13273.177    
     16600   33.2           511.41628      59.429063      310.71425      15878.633    
     16700   33.4           500.97834      58.216123      311.27115      14617.051    
     16800   33.6           509.92456      59.255718      311.02221      15068.813    
     16900   33.8           485.30748      56.395093      310.47943      17125.791    
     17000   34             475.30707      55.232996      309.23712      15934.698    
     17100   34.2           495.77619      57.611608      309.61297      14221.532    
     17200   34.4           489.65316      56.900081      311.75685      16628.076    
     17300   34.6           505.62612      58.756218      314.12441      14518.274    
     17400   34.8           512.94514      59.606723      313.7013       14946.675    
     17500   35             499.68112      58.06538       308.86496      14469.85     
     17600   35.2           498.19086      57.892204      308.06745      14380.143    
     17700   35.4           490.64059      57.014827      309.91215      13745.156    
     17800   35.6           523.53465      60.837277      312.30978      14060.204    
     17900   35.8           500.65447      58.178488      312.09557      16219.582    
     18000   36             475.05954      55.204233      308.1059       14386.336    
     18100   36.2           472.98529      54.963195      305.68729      14676.472    
     18200   36.4           500.43043      58.152454      307.77855      13969.023    
     18300   36.6           503.69197      58.53146       310.49454      15370.664    
     18400   36.8           507.96588      59.028109      311.38251      14452.84     
     18500   37             513.75654      59.701012      311.32909      15374.269    
     18600   37.2           476.97379      55.426677      307.90452      15200.628    
     18700   37.4           488.63671      56.781965      306.08583      15602.713    
     18800   37.6           484.33603      56.282206      308.40224      15389.84     
     18900   37.8           484.97029      56.35591       310.16792      16156.57     
     19000   38             492.60248      57.242807      310.76764      14422.807    
     19100   38.2           496.90769      57.743094      311.50401      13936.702    
     19200   38.4           499.26942      58.017538      310.55396      15875.436    
     19300   38.6           485.01221      56.360781      307.14009      13832.166    
     19400   38.8           477.25539      55.4594        306.68993      15736.691    
     19500   39             489.85724      56.923797      310.15019      14582.187    
     19600   39.2           491.92774      57.1644        311.81002      14016.142    
     19700   39.4           511.57739      59.447784      311.57898      14809.549    
     19800   39.6           485.51555      56.419271      310.03771      15644.53     
     19900   39.8           474.38553      55.125909      307.26711      13821.023    
     20000   40             476.89766      55.417831      305.8557       14290.898    
     20100   40.2           500.5652       58.168115      309.6112       17873.056    
     20200   40.4           500.82193      58.197947      312.26118      14221.391    
     20300   40.6           507.77954      59.006456      312.77985      14464.607    
     20400   40.8           493.27389      57.320829      310.99273      15268.816    
     20500   41             495.49621      57.579072      307.87512      13645.53     
     20600   41.2           505.07508      58.692185      307.41537      16381.329    
     20700   41.4           499.61588      58.057798      311.16679      13889.804    
     20800   41.6           517.5191       60.13824       313.74754      12211.552    
     20900   41.8           509.75815      59.23638       312.39608      15226.92     
     21000   42             490.6468       57.015547      309.21357      13259.8      
     21100   42.2           492.72223      57.256723      307.93833      13612.416    
     21200   42.4           492.80752      57.266634      308.59913      15256.425    
     21300   42.6           504.46993      58.621862      312.70713      13283.028    
     21400   42.8           529.01361      61.473957      314.24747      13815.932    
     21500   43             504.36209      58.609331      311.97177      15910.234    
     21600   43.2           501.74694      58.305438      309.66839      13218.145    
     21700   43.4           501.54944      58.282488      308.05914      14698.662    
     21800   43.6           502.77927      58.4254        308.06295      14142.329    
     21900   43.8           518.93468      60.302737      311.50997      13162.482    
     22000   44             518.60075      60.263933      314.48793      15431.703    
     22100   44.2           522.16739      60.678393      312.70828      16183.664    
     22200   44.4           500.40584      58.149596      310.39422      13290.807    
     22300   44.6           495.11185      57.534408      308.78345      13217.774    
     22400   44.8           487.5971       56.661158      308.78629      14711.804    
     22500   45             521.22133      60.568457      311.62647      12837.987    
     22600   45.2           520.30981      60.462534      314.54497      14133.72     
     22700   45.4           526.69143      61.204109      312.55915      16623.082    
     22800   45.6           483.32101      56.164255      309.82264      12196.003    
     22900   45.8           498.14833      57.887262      308.99797      13396.867    
     23000   46             515.70397      59.927313      309.13803      14647.395    
     23100   46.2           504.83825      58.664664      310.33564      14796.194    
     23200   46.4           513.66763      59.690681      313.34182      16167.201    
     23300   46.6           562.26779      65.338256      315.81214      14246.304    
     23400   46.8           496.66292      57.71465       312.33668      16564.593    
     23500   47             503.44061      58.502251      310.20591      12833.825    
     23600   47.2           496.94134      57.747004      309.11632      11875.796    
     23700   47.4           489.71553      56.90733       309.33923      16611.902    
     23800   47.6           506.85853      58.899429      311.38249      11941.667    
     23900   47.8           522.5417       60.721891      313.97456      14690.723    
     24000   48             511.57168      59.447121      313.33322      14716.077    
     24100   48.2           486.96395      56.587583      308.69056      12257.546    
     24200   48.4           497.41748      57.802334      307.70665      16203.479    
     24300   48.6           513.72333      59.697153      309.16547      14585.546    
     24400   48.8           497.35808      57.795432      311.50631      12884.979    
     24500   49             515.13729      59.861462      312.65354      15577.071    
     24600   49.2           505.92947      58.791469      311.09975      15273.951    
     24700   49.4           485.27109      56.390864      307.30689      12697.156    
     24800   49.6           478.35246      55.586885      307.15612      15572.085    
     24900   49.8           478.82388      55.641667      309.56655      15169.167    
     25000   50             509.64398      59.223113      311.83897      14054.836    
     25100   50.2           508.69741      59.113116      311.26157      16975.116    
     25200   50.4           478.55612      55.610552      309.73218      14340.117    
     25300   50.6           488.07412      56.71659       309.66432      14697.649    
     25400   50.8           502.40989      58.382476      310.0775       15786.044    
     25500   51             504.24678      58.595932      310.0979       15429.324    
     25600   51.2           484.71252      56.325956      310.1868       13238.002    
     25700   51.4           497.70072      57.835247      308.73561      17029.281    
     25800   51.6           485.6863       56.439113      306.38423      13480.229    
     25900   51.8           486.59352      56.544537      306.21932      14631.238    
     26000   52             491.03367      57.060504      309.95298      17062.744    
     26100   52.2           506.18859      58.821579      311.36218      14694.931    
     26200   52.4           522.54568      60.722353      311.12485      13582.93     
     26300   52.6           497.38639      57.798721      309.95024      16590.747    
     26400   52.8           480.92824      55.886204      306.05903      14421.255    
     26500   53             466.97919      54.265256      304.71181      12535.064    
     26600   53.2           486.37865      56.519568      307.1366       15527.37     
     26700   53.4           491.39931      57.102993      308.93195      14672.215    
     26800   53.6           494.87093      57.506413      310.26707      12577.387    
     26900   53.8           505.6753       58.761933      311.2444       15194.249    
     27000   54             499.78764      58.077758      310.79707      13266.428    
     27100   54.2           496.12401      57.652026      307.91063      14045.462    
     27200   54.4           495.82406      57.617171      306.65303      15309.158    
     27300   54.6           478.44372      55.59749       308.27135      14831.987    
     27400   54.8           518.40157      60.240788      311.9244       14332.989    
     27500   55             488.21592      56.733068      311.96011      15358.192    
     27600   55.2           496.98604      57.752198      310.87868      14865.146    
     27700   55.4           497.63646      57.82778       309.8296       15761.046    
     27800   55.6           503.25447      58.480621      309.72234      15894.591    
     27900   55.8           493.11813      57.302728      311.20002      13511.991    
     28000   56             507.08092      58.925272      313.9416       14389.127    
     28100   56.2           502.76243      58.423442      314.26308      16475.214    
     28200   56.4           502.48821      58.391577      310.63526      14151.639    
     28300   56.6           482.3056       56.04626       308.67257      15212.606    
     28400   56.8           497.54787      57.817486      308.99413      15377.49     
     28500   57             510.10235      59.276378      310.87941      14401.755    
     28600   57.2           501.25017      58.247711      314.68856      16171.666    
     28700   57.4           528.57336      61.422799      314.38931      15944.806    
     28800   57.6           499.32691      58.024219      312.24341      14739.925    
     28900   57.8           507.95343      59.026662      310.89543      14984.337    
     29000   58             507.8973       59.020139      310.02445      13957.245    
     29100   58.2           483.66958      56.204761      308.59471      14460.871    
     29200   58.4           486.5158       56.535505      307.45141      14762.246    
     29300   58.6           493.80334      57.382353      308.37013      15154.988    
     29400   58.8           508.14196      59.04857       311.80589      15950.682    
     29500   59             516.78917      60.053418      312.63852      14272.025    
     29600   59.2           505.48926      58.740314      310.3827       15878.108    
     29700   59.4           493.81837      57.3841        307.37656      15299.701    
     29800   59.6           490.49761      56.998211      307.99565      15948.216    
     29900   59.8           507.03458      58.919887      309.89822      14534.277    
     30000   60             497.65085      57.829453      312.06866      14482.334    
     30100   60.2           494.72351      57.489282      312.55503      14671.398    
     30200   60.4           506.22837      58.826203      310.10749      15972.851    
     30300   60.6           477.35749      55.471265      306.00386      14396.966    
     30400   60.8           485.99303      56.474757      307.17521      15463.124    
     30500   61             488.7464       56.794712      310.3816       15790.63     
     30600   61.2           512.70639      59.578979      311.39783      14407.948    
     30700   61.4           501.81616      58.313482      310.06886      16005.398    
     30800   61.6           480.22947      55.805004      306.84359      14797.128    
     30900   61.8           488.24428      56.736363      304.74933      14344.585    
     31000   62             490.67969      57.01937       307.61698      16895.195    
     31100   62.2           506.66938      58.877449      311.5845       14664.277    
     31200   62.4           500.27371      58.134242      311.63529      15226.004    
     31300   62.6           493.77823      57.379435      310.25478      15544.49     
     31400   62.8           484.28413      56.276174      308.05977      13756.572    
     31500   63             489.73506      56.909599      306.86367      15646.129    
     31600   63.2           491.46667      57.110821      308.63153      15031.457    
     31700   63.4           504.16632      58.586582      312.60607      15873.913    
     31800   63.6           525.01444      61.009235      313.17643      15107.619    
     31900   63.8           490.92312      57.047657      310.84645      17061.45     
     32000   64             486.61743      56.547315      308.43878      13410.459    
     32100   64.2           506.51938      58.860019      308.80588      14649.14     
     32200   64.4           497.21639      57.778966      309.30079      16833.604    
     32300   64.6           498.27246      57.901686      310.25075      14861.67     
     32400   64.8           527.2476       61.268739      312.48485      14201.346    
     32500   65             517.55032      60.141868      315.15523      16049.689    
     32600   65.2           532.70946      61.903433      315.39396      14090.91     
     32700   65.4           502.92314      58.442118      310.68113      14456.672    
     32800   65.6           486.44466      56.527239      309.03188      14682.615    
     32900   65.8           505.22124      58.709169      308.83834      13775.289    
     33000   66             497.36911      57.796713      309.50216      14185.814    
     33100   66.2           525.92891      61.115501      312.50147      15179.51     
     33200   66.4           512.72426      59.581056      313.67594      14395.682    
     33300   66.6           504.99237      58.682573      310.57698      13845.347    
     33400   66.8           484.17224      56.263172      308.51777      15454.339    
     33500   67             488.40283      56.754787      309.05241      13861.921    
     33600   67.2           518.92245      60.301316      310.11         14590.858    
     33700   67.4           512.08145      59.506358      311.94836      14898.553    
     33800   67.6           512.83008      59.593353      314.19994      13620.937    
     33900   67.8           511.348        59.421128      315.03843      15940.812    
     34000   68             505.07953      58.692702      310.99392      14190.612    
     34100   68.2           499.87842      58.088307      308.47604      14275.958    
     34200   68.4           475.0127       55.198789      308.3312       15815.166    
     34300   68.6           505.21111      58.707991      310.2661       14735.043    
     34400   68.8           500.60605      58.172861      313.28786      13976.417    
     34500   69             528.37283      61.399496      314.64463      16960.636    
     34600   69.2           502.00872      58.335858      309.88971      14914.586    
     34700   69.4           495.50188      57.579732      307.46201      15304.549    
     34800   69.6           486.82658      56.571619      308.18218      14952.628    
     34900   69.8           502.95219      58.445494      310.70426      14351.857    
     35000   70             495.05476      57.527774      311.916        17726.126    
     35100   70.2           512.70915      59.5793        310.72263      14135.301    
     35200   70.4           490.55384      57.004746      306.64411      15787.769    
     35300   70.6           478.31918      55.583018      306.60917      13848.505    
     35400   70.8           503.46372      58.504937      308.92691      16094.352    
     35500   71             507.682        58.995121      310.84019      15493.324    
     35600   71.2           517.65246      60.153738      310.89679      15852.67     
     35700   71.4           489.71953      56.907794      310.48987      15280.307    
     35800   71.6           492.96925      57.285428      309.49487      15614.249    
     35900   71.8           485.27111      56.390867      305.5584       13519.429    
     36000   72             487.23962      56.619617      303.91084      12481.119    
     36100   72.2           487.67298      56.669976      306.61382      15273.466    
     36200   72.4           485.5883       56.427726      308.8563       15547.694    
     36300   72.6           519.69223      60.390768      310.59857      15165.141    
     36400   72.8           519.86531      60.410881      310.44609      13973.579    
     36500   73             488.13354      56.723495      308.53726      14374.984    
     36600   73.2           484.56577      56.308903      305.49987      14183.251    
     36700   73.4           491.7683       57.145872      305.75051      14779.846    
     36800   73.6           491.4877       57.113264      309.91507      14661.705    
     36900   73.8           512.53332      59.558868      310.69582      14972.08     
     37000   74             495.23734      57.548991      310.0038       15279.426    
     37100   74.2           480.96949      55.890997      308.30982      15036.735    
     37200   74.4           484.76734      56.332325      306.21783      13234.442    
     37300   74.6           479.40248      55.708903      305.48808      16771.182    
     37400   74.8           490.83302      57.037187      308.68277      14937.201    
     37500   75             491.11826      57.070334      311.51121      15700.756    
     37600   75.2           494.65774      57.481639      311.13357      15802.253    
     37700   75.4           489.21016      56.848603      308.94557      15510.996    
     37800   75.6           483.15179      56.144592      306.63698      13426.893    
     37900   75.8           486.07526      56.484312      306.7458       15291.779    
     38000   76             500.33718      58.141617      311.51379      15617.274    
     38100   76.2           509.96847      59.26082       312.24517      14352.282    
     38200   76.4           504.45963      58.620666      310.46579      14240.764    
     38300   76.6           502.20795      58.35901       307.84518      14451.165    
     38400   76.8           482.86992      56.111836      307.04071      13737.145    
     38500   77             524.45384      60.944091      310.97902      14792.315    
     38600   77.2           514.30394      59.764623      313.30401      14644.342    
     38700   77.4           512.33031      59.535277      311.32873      15237.121    
     38800   77.6           487.60257      56.661794      308.84813      14074.899    
     38900   77.8           499.24336      58.01451       307.83027      13819.072    
     39000   78             494.5047       57.463854      308.72209      14667.78     
     39100   78.2           519.13382      60.325878      313.21927      14189.727    
     39200   78.4           504.16059      58.585916      313.41032      14974.089    
     39300   78.6           509.74722      59.235109      310.72795      14712.697    
     39400   78.8           489.15288      56.841947      308.85086      17603.184    
     39500   79             491.0431       57.0616        308.62551      14953.041    
     39600   79.2           487.95066      56.702243      309.77989      16068.148    
     39700   79.4           521.16111      60.561459      311.29255      14796.261    
     39800   79.6           524.67192      60.969432      313.77621      16591.512    
     39900   79.8           512.6469       59.572066      314.56913      11935.117    
     40000   80             495.2337       57.548568      310.88182      15838.463    
     40100   80.2           509.36977      59.191248      308.37092      14818.644    
     40200   80.4           479.5634       55.727603      308.0694       14947.232    
     40300   80.6           510.95032      59.374916      310.22832      15194.609    
     40400   80.8           514.92798      59.837139      312.70026      15135.883    
     40500   81             513.0726       59.621535      311.72272      15838.117    
     40600   81.2           487.09133      56.602385      306.77973      12296.971    
     40700   81.4           500.4494       58.154657      307.1789       14724.552    
     40800   81.6           496.1351       57.653315      309.80808      15298.398    
     40900   81.8           502.77189      58.424542      311.65588      15395.807    
     41000   82             507.07052      58.924064      311.93628      14269.569    
     41100   82.2           491.87416      57.158173      309.11116      14014.874    
     41200   82.4           476.26306      55.344087      305.53301      14246.352    
     41300   82.6           484.80202      56.336356      306.28955      14425.798    
     41400   82.8           484.68515      56.322776      309.2503       14206.312    
     41500   83             514.24736      59.758047      310.60444      15822.648    
     41600   83.2           501.51897      58.278947      310.24887      14231.724    
     41700   83.4           499.98131      58.100263      308.57312      15740.598    
     41800   83.6           469.91981      54.606971      304.71277      15019.685    
     41900   83.8           462.69547      53.767467      303.74638      13456.344    
     42000   84             478.33513      55.584872      307.08922      15904.104    
     42100   84.2           470.3722       54.65954       308.83867      13873.303    
     42200   84.4           495.03743      57.52576       310.97797      13852.415    
     42300   84.6           517.96053      60.189537      312.35618      15648.935    
     42400   84.8           477.24707      55.458434      311.93882      13235.764    
     42500   85             481.85952      55.994423      308.52236      13636.748    
     42600   85.2           472.89906      54.953174      306.88865      15543.071    
     42700   85.4           489.96228      56.936003      308.25893      13785.479    
     42800   85.6           529.04792      61.477945      311.34881      13707.239    
     42900   85.8           507.96107      59.02755       311.50705      15103.074    
     43000   86             500.08345      58.112132      310.44053      14511.087    
     43100   86.2           489.80295      56.917488      309.21376      13520.271    
     43200   86.4           479.36108      55.704092      307.56808      14976.848    
     43300   86.6           495.01719      57.523409      305.04178      14207.041    
     43400   86.8           495.47981      57.577167      304.17288      14686.962    
     43500   87             498.25745      57.899942      308.1516       15486.93     
     43600   87.2           507.90669      59.021231      310.18743      15972        
     43700   87.4           519.00113      60.310459      310.57676      15285.218    
     43800   87.6           512.03322      59.500754      309.57118      16040.396    
     43900   87.8           494.7904       57.497055      306.74315      14471.505    
     44000   88             488.58882      56.7764        305.19369      15901.815    
     44100   88.2           486.6597       56.552228      307.39963      14851.461    
     44200   88.4           516.12915      59.976721      311.23644      16631.788    
     44300   88.6           509.89197      59.25193       311.50724      15742.012    
     44400   88.8           490.63586      57.014276      309.36037      14461.326    
     44500   89             484.88689      56.346218      307.12894      13215.642    
     44600   89.2           499.11895      58.000053      307.56049      15671.009    
     44700   89.4           501.1376       58.23463       312.31482      15120.573    
     44800   89.6           501.93421      58.3272        313.15166      15069.449    
     44900   89.8           502.17132      58.354753      311.37887      15147.553    
     45000   90             497.1781       57.774517      308.0347       14437.909    
     45100   90.2           505.19248      58.705826      307.31934      16510.946    
     45200   90.4           496.35737      57.679144      308.08808      16511.304    
     45300   90.6           514.7226       59.813273      310.0069       16272.262    
     45400   90.8           521.36508      60.585162      314.34501      16516.709    
     45500   91             524.47148      60.94614       315.92838      16344.797    
     45600   91.2           508.82638      59.128103      313.17077      16671.396    
     45700   91.4           521.3896       60.58801       310.44895      14410.762    
     45800   91.6           488.01441      56.709651      308.37364      16617.774    
     45900   91.8           488.5311       56.769694      307.67085      15472.027    
     46000   92             510.2374       59.29207       309.56328      14535.785    
     46100   92.2           525.8996       61.112094      313.37955      15211.843    
     46200   92.4           512.47295      59.551853      313.67622      14832.147    
     46300   92.6           516.26584      59.992606      311.16328      14998.521    
     46400   92.8           502.00866      58.335851      310.04436      14709.376    
     46500   93             510.26166      59.29489       309.84937      15064.268    
     46600   93.2           499.63137      58.059599      309.83073      16172.114    
     46700   93.4           507.08849      58.926152      311.17091      15446.723    
     46800   93.6           515.03679      59.849784      313.2652       15678.509    
     46900   93.8           499.90783      58.091724      312.99609      15484.601    
     47000   94             499.36558      58.028713      309.51282      15334.747    
     47100   94.2           485.55879      56.424297      307.56295      15722.588    
     47200   94.4           494.80312      57.498532      307.86956      14356.171    
     47300   94.6           502.76369      58.423589      309.68635      14759.842    
     47400   94.8           524.61365      60.962661      314.20095      16964.538    
     47500   95             532.77215      61.910718      313.73729      14882.979    
     47600   95.2           498.14159      57.886479      311.25346      17052.073    
     47700   95.4           506.67762      58.878407      309.12095      15336.464    
     47800   95.6           497.65488      57.829921      308.26444      13533.648    
     47900   95.8           493.26142      57.319379      308.43609      15643.347    
     48000   96             509.85796      59.247978      312.72684      15117.092    
     48100   96.2           493.24817      57.317839      313.38893      15953.168    
     48200   96.4           513.88144      59.715526      311.2108       14553.644    
     48300   96.6           495.00149      57.521583      308.36522      13513.966    
     48400   96.8           500.39845      58.148737      308.72992      16777.943    
     48500   97             496.42476      57.686974      309.84002      14592.741    
     48600   97.2           494.04173      57.410056      310.16664      14638.836    
     48700   97.4           501.94871      58.328885      311.26671      15644.563    
     48800   97.6           512.84483      59.595067      315.0388       14972.659    
     48900   97.8           513.67524      59.691565      315.82718      14807.44     
     49000   98             492.77054      57.262337      311.96594      17516.312    
     49100   98.2           504.68967      58.647398      309.98053      14327.412    
     49200   98.4           503.53282      58.512966      309.39874      14895.603    
     49300   98.6           502.68827      58.414825      310.34165      14637.22     
     49400   98.8           523.33738      60.814353      313.67178      16440.504    
     49500   99             526.78218      61.214655      315.5673       16787.335    
     49600   99.2           500.24685      58.13112       312.96265      13251.067    
     49700   99.4           508.3109       59.068203      310.20043      14748.296    
     49800   99.6           490.28349      56.973329      310.19093      15104.44     
     49900   99.8           506.10976      58.812419      310.66975      15233.434    
     50000   100            528.97512      61.469485      311.65484      16317.584    
     50100   100.2          526.00488      61.124329      312.70251      14316.36     
     50200   100.4          521.8494       60.641442      312.197        15403.951    
     50300   100.6          503.93985      58.560265      309.91759      14213.815    
     50400   100.8          495.76785      57.610638      307.9564       13131.307    
     50500   101            498.50973      57.929258      308.75411      14354.424    
     50600   101.2          529.64098      61.546861      313.21681      16084.024    
     50700   101.4          519.29636      60.344766      313.43581      13894.359    
     50800   101.6          502.11151      58.347803      311.07491      15315.36     
     50900   101.8          480.55688      55.84305       309.14327      16696.962    
     51000   102            501.80221      58.31186       309.13239      12882.011    
     51100   102.2          505.96256      58.795314      309.6802       15707.441    
     51200   102.4          491.16276      57.075505      310.58383      15939.936    
     51300   102.6          533.83235      62.033918      315.41235      13798.457    
     51400   102.8          528.82458      61.451992      316.01178      15610.3      
     51500   103            500.42721      58.152079      312.87877      15272.873    
     51600   103.2          495.82703      57.617516      310.50033      14727.745    
     51700   103.4          511.953        59.491432      309.37709      14788.356    
     51800   103.6          506.72973      58.884462      308.76163      16566.701    
     51900   103.8          465.83214      54.131963      309.30828      13423.392    
     52000   104            506.66         58.87636       312.35835      16513.038    
     52100   104.2          508.9431       59.141668      312.95465      10703.711    
     52200   104.4          530.97058      61.701367      309.97476      15268.217    
     52300   104.6          507.55142      58.979947      307.66621      12049.752    
     52400   104.8          506.70355      58.88142       308.15191      14174.117    
     52500   105            493.32107      57.326311      309.34335      15386.341    
     52600   105.2          508.87793      59.134094      312.40843      14897.405    
     52700   105.4          530.43666      61.639324      315.02973      14287.616    
     52800   105.6          516.09075      59.972259      311.8136       15075.916    
     52900   105.8          501.17809      58.239335      308.85994      15469.382    
     53000   106            501.43132      58.268761      308.8768       13780.489    
     53100   106.2          511.40853      59.428161      309.51042      16366.945    
     53200   106.4          499.90426      58.091309      310.21873      13315.169    
     53300   106.6          506.89223      58.903346      310.68674      15494.399    
     53400   106.8          485.80998      56.453486      311.11294      15681.46     
     53500   107            494.96383      57.517208      310.87522      15879.998    
     53600   107.2          511.92339      59.487991      309.6063       13263.298    
     53700   107.4          488.25933      56.738112      308.02264      14635.712    
     53800   107.6          496.29616      57.672031      307.8          15027.58     
     53900   107.8          503.85557      58.550472      310.84232      13535.435    
     54000   108            505.50346      58.741964      313.40172      12818.095    
     54100   108.2          517.33034      60.116305      312.76283      13858.565    
     54200   108.4          498.39414      57.915827      309.61432      15736.524    
     54300   108.6          491.87721      57.158527      308.65367      14033.519    
     54400   108.8          485.53314      56.421316      308.99272      13660.079    
     54500   109            506.77162      58.88933       310.0854       15900.936    
     54600   109.2          493.60495      57.359299      311.75318      15914.773    
     54700   109.4          520.98385      60.540861      313.38427      16042.063    
     54800   109.6          507.92235      59.023051      311.32808      14847.62     
     54900   109.8          503.77963      58.541647      307.63168      13684.085    
     55000   110            505.94251      58.792984      307.27168      14945.366    
     55100   110.2          501.70372      58.300416      308.3656       14146.916    
     55200   110.4          509.63656      59.22225       311.66555      15471.566    
     55300   110.6          514.12407      59.743721      313.23591      15248.538    
     55400   110.8          510.93046      59.372608      311.56547      14315.505    
     55500   111            506.12688      58.814409      310.21686      15127.077    
     55600   111.2          492.73626      57.258353      309.43239      14036.723    
     55700   111.4          502.13483      58.350513      308.16061      16416.733    
     55800   111.6          488.31523      56.744608      305.83909      14555.531    
     55900   111.8          482.07904      56.019932      304.38933      15387.215    
     56000   112            503.68754      58.530945      307.50591      14016.308    
     56100   112.2          505.78504      58.774685      310.44799      15196.447    
     56200   112.4          497.83403      57.850739      311.57816      15366.215    
     56300   112.6          503.70712      58.53322       311.45645      15167.383    
     56400   112.8          496.77605      57.727797      309.23422      16163.5      
     56500   113            499.0337       57.990146      306.39099      13854.263    
     56600   113.2          486.97895      56.589326      307.66459      14922.237    
     56700   113.4          504.34085      58.606863      311.04119      15832.273    
     56800   113.6          517.81552      60.172685      311.20567      14979.757    
     56900   113.8          489.64064      56.898627      310.20306      18493.057    
     57000   114            503.43285      58.50135       308.30032      15610.217    
     57100   114.2          472.56993      54.914927      305.85817      15996.516    
     57200   114.4          493.08113      57.298429      305.85934      14375.344    
     57300   114.6          509.80168      59.241439      310.72987      15508.829    
     57400   114.8          486.6436       56.550357      311.74422      16710.583    
     57500   115            510.51535      59.32437       310.42991      14568.22     
     57600   115.2          483.8633       56.227272      307.61894      14086.304    
     57700   115.4          495.72614      57.605792      307.34979      14776.764    
     57800   115.6          510.97353      59.377613      310.63155      15033.9      
     57900   115.8          501.85566      58.318072      313.64947      12651.587    
     58000   116            521.67908      60.62165       312.29605      15438.722    
     58100   116.2          488.34004      56.747491      309.41511      14084.838    
     58200   116.4          481.4982       55.952436      308.56193      13724.783    
     58300   116.6          496.25969      57.667792      309.51601      15253.417    
     58400   116.8          497.64294      57.828533      311.45234      15247.076    
     58500   117            503.65707      58.527404      312.52251      13153.05     
     58600   117.2          537.44503      62.45373       313.3229       16558.672    
     58700   117.4          492.99689      57.28864       310.62267      15237.333    
     58800   117.6          493.04532      57.294267      307.87639      13502.532    
     58900   117.8          483.60252      56.196968      307.52967      16113.903    
     59000   118            491.5782       57.123781      309.95303      14591.877    
     59100   118.2          509.26474      59.179043      312.49034      15192.939    
     59200   118.4          508.35054      59.072809      311.91225      13596.003    
     59300   118.6          504.71773      58.650658      310.08248      14299.646    
     59400   118.8          512.82824      59.59314       309.36253      13545.228    
     59500   119            500.54135      58.165343      309.36706      13566.164    
     59600   119.2          497.01507      57.755572      309.65542      13280.838    
     59700   119.4          519.51509      60.370184      311.63855      13939.78     
     59800   119.6          517.60343      60.14804       313.81787      14889.758    
     59900   119.8          502.26843      58.366037      312.79879      14221.618    
     60000   120            502.52147      58.395443      309.17091      14559.251    
     60100   120.2          485.60742      56.429947      308.5396       14398.48     
     60200   120.4          498.2718       57.90161       309.5155       12238.998    
     60300   120.6          517.46153      60.13155       312.32348      15505.128    
     60400   120.8          521.35596      60.584102      314.7459       14933.366    
     60500   121            509.64164      59.222841      318.1341       16495.365    
     60600   121.2          533.84071      62.034891      316.58213      14073.861    
     60700   121.4          516.08499      59.97159       312.24057      14722.832    
     60800   121.6          492.6715       57.250828      309.68986      16605.106    
     60900   121.8          506.30517      58.835126      308.1406       14044.405    
     61000   122            499.82708      58.082342      307.92215      16665.049    
     61100   122.2          497.56716      57.819727      310.66375      14122.197    
     61200   122.4          510.49441      59.321937      313.30493      17134.89     
     61300   122.6          496.22481      57.66374       312.97502      15776.097    
     61400   122.8          481.70646      55.976637      309.3715       14858.942    
     61500   123            485.10371      56.371413      307.01371      15059.708    
     61600   123.2          485.09352      56.37023       308.46382      13899.572    
     61700   123.4          518.03908      60.198664      311.02111      13962.88     
     61800   123.6          509.71816      59.231733      312.36295      14655.46     
     61900   123.8          492.21597      57.197893      311.81619      13898.807    
     62000   124            484.24698      56.271857      307.50161      12891.969    
     62100   124.2          481.79511      55.986939      306.46743      13384.351    
     62200   124.4          488.14269      56.724558      308.58492      13550.417    
     62300   124.6          507.26855      58.947076      310.96154      15204.01     
     62400   124.8          487.43713      56.642568      310.87282      14594.763    
     62500   125            509.69934      59.229546      311.37631      13895.269    
     62600   125.2          507.11051      58.928712      311.19769      13467.94     
     62700   125.4          494.85575      57.504648      308.31065      13611.226    
     62800   125.6          480.33108      55.816811      306.98067      12533.018    
     62900   125.8          484.52872      56.304597      309.08224      14986.454    
     63000   126            507.31708      58.952716      312.27881      15134.911    
     63100   126.2          487.09246      56.602516      312.07823      13094.52     
     63200   126.4          513.15499      59.631109      310.72271      15927.167    
     63300   126.6          483.42583      56.176435      308.83716      14367.323    
     63400   126.8          490.25567      56.970096      307.83805      15505.088    
     63500   127            505.8067       58.777202      309.99764      14165.164    
     63600   127.2          519.00424      60.310821      312.75975      15524.949    
     63700   127.4          517.98576      60.192468      313.50183      14242.336    
     63800   127.6          503.60078      58.520863      311.37406      13118.276    
     63900   127.8          490.80747      57.034219      308.46551      15197.41     
     64000   128            494.84177      57.503024      308.39948      12960.226    
     64100   128.2          496.71821      57.721075      309.85416      13856.856    
     64200   128.4          493.5439       57.352204      311.0302       14211.636    
     64300   128.6          515.10692      59.857932      311.4283       14013.305    
     64400   128.8          501.25833      58.248659      311.61826      15286.49     
     64500   129            495.23137      57.548297      310.36522      11822.577    
     64600   129.2          463.66773      53.880449      306.73377      13091.876    
     64700   129.4          475.88207      55.299814      307.46304      13516.845    
     64800   129.6          495.5709       57.587752      310.51769      11169.037    
     64900   129.8          507.38943      58.961123      311.82024      16221.911    
     65000   130            501.33793      58.257909      311.78494      13954.317    
     65100   130.2          502.84965      58.433578      311.79892      13574.806    
     65200   130.4          498.80342      57.963387      310.10779      15339.277    
     65300   130.6          479.5174       55.722257      307.43537      15677.844    
     65400   130.8          514.2834       59.762236      307.11332      13337.693    
     65500   131            501.78159      58.309465      310.7284       15452.156    
     65600   131.2          495.82535      57.617321      312.806        13750.185    
     65700   131.4          492.15666      57.191001      312.15857      14750.083    
     65800   131.6          490.01674      56.942332      310.20556      14119.004    
     65900   131.8          485.77073      56.448925      307.97974      15347.787    
     66000   132            513.38407      59.65773       307.59984      14735.427    
     66100   132.2          501.94736      58.328727      311.07308      15267.037    
     66200   132.4          510.11606      59.277971      313.20673      15237.109    
     66300   132.6          530.26905      61.619846      313.29016      14754.197    
     66400   132.8          492.4604       57.226296      310.05703      15905.367    
     66500   133            495.38621      57.56629       308.48076      14971.724    
     66600   133.2          493.50822      57.348059      309.24515      14620.038    
     66700   133.4          510.24205      59.292611      310.95269      13620.581    
     66800   133.6          492.01048      57.174014      311.05778      16871.315    
     66900   133.8          482.42319      56.059924      310.61194      13628.449    
     67000   134            499.09791      57.997608      310.18135      14935.772    
     67100   134.2          498.04213      57.874921      309.06215      14689.26     
     67200   134.4          483.40065      56.17351       307.79667      14190.166    
     67300   134.6          501.72879      58.303329      308.94725      15094.937    
     67400   134.8          501.29001      58.25234       312.24801      15584.333    
     67500   135            508.98266      59.146264      313.57536      13980.561    
     67600   135.2          498.62139      57.942234      312.07661      14052.43     
     67700   135.4          505.2868       58.716788      309.76572      15392.013    
     67800   135.6          502.24422      58.363224      309.00883      13586.41     
     67900   135.8          492.84823      57.271365      309.27873      15450.139    
     68000   136            489.62831      56.897194      310.09777      15034.586    
     68100   136.2          512.1117       59.509874      311.75153      14285.896    
     68200   136.4          526.88595      61.226713      313.01988      15808.775    
     68300   136.6          492.77692      57.263078      311.89151      15334.844    
     68400   136.8          502.17792      58.35552       308.70494      12528.245    
     68500   137            482.33499      56.049674      307.92073      14761.492    
     68600   137.2          509.61169      59.21936       309.43379      15639.396    
     68700   137.4          497.04921      57.759539      313.58491      13032.178    
     68800   137.6          512.39523      59.542821      314.05331      15321.296    
     68900   137.8          489.90152      56.928942      312.29037      14612.335    
     69000   138            489.60349      56.894311      310.47302      14677.996    
     69100   138.2          495.23918      57.549205      309.42135      15258.023    
     69200   138.4          502.43031      58.384849      308.77882      13172.88     
     69300   138.6          496.47114      57.692364      309.62336      13572.974    
     69400   138.8          491.53298      57.118526      313.181        15156.253    
     69500   139            510.57298      59.331066      313.65713      14231.62     
     69600   139.2          508.87724      59.134013      311.00192      14129.741    
     69700   139.4          493.38304      57.333512      308.24298      15242.941    
     69800   139.6          481.12822      55.909442      308.36709      13954.809    
     69900   139.8          500.39206      58.147995      309.79843      14452.305    
     70000   140            489.75356      56.911749      311.52668      15105.516    
     70100   140.2          505.79246      58.775548      312.29545      13780.338    
     70200   140.4          499.29491      58.0205        311.80283      16214.836    
     70300   140.6          498.96485      57.982146      311.22138      14586.293    
     70400   140.8          496.88149      57.740049      310.56815      13796.995    
     70500   141            496.51893      57.697917      308.77602      14319.632    
     70600   141.2          487.3568       56.633233      306.75651      14502.817    
     70700   141.4          484.12614      56.257815      307.08414      12717.534    
     70800   141.6          503.68114      58.530202      311.39734      16091.764    
     70900   141.8          522.93628      60.767742      312.97711      14322.438    
     71000   142            481.64691      55.969717      310.95782      14848.55     
     71100   142.2          478.87828      55.647988      308.7031       14721.791    
     71200   142.4          495.25586      57.551143      308.30351      14139.427    
     71300   142.6          495.21266      57.546123      311.279        13531.096    
     71400   142.8          513.31006      59.649129      315.08604      16189.655    
     71500   143            517.83707      60.175189      313.26179      13338.971    
     71600   143.2          510.38627      59.30937       310.40625      13619.509    
     71700   143.4          494.60591      57.475616      309.1579       15276.965    
     71800   143.6          502.99542      58.450517      309.05184      12504.47     
     71900   143.8          495.37808      57.565345      310.85879      14112.27     
     72000   144            523.95391      60.885996      314.63889      14657.608    
     72100   144.2          524.09867      60.902818      314.33852      16132.903    
     72200   144.4          496.84464      57.735767      311.04153      13932.208    
     72300   144.6          496.74695      57.724414      309.35282      15751.983    
     72400   144.8          487.74975      56.678897      309.65196      16139.042    
     72500   145            504.88235      58.669787      310.82769      13352.748    
     72600   145.2          515.94089      59.954845      312.96712      15728.367    
     72700   145.4          525.67978      61.086551      315.77481      15752.942    
     72800   145.6          520.00489      60.427101      313.01599      15518.764    
     72900   145.8          510.30614      59.300059      310.29576      15446.261    
     73000   146            501.92838      58.326523      309.52257      15927.266    
     73100   146.2          477.27235      55.461372      309.24273      15444.199    
     73200   146.4          501.08811      58.228879      310.38227      14402.444    
     73300   146.6          504.21558      58.592307      314.06787      14535.988    
     73400   146.8          532.12579      61.835608      314.77575      13085.833    
     73500   147            525.24774      61.036346      311.7752       15187.91     
     73600   147.2          500.34542      58.142575      309.96479      15318.738    
     73700   147.4          507.60607      58.986298      309.77823      13105.021    
     73800   147.6          493.2056       57.312892      309.46868      15728.845    
     73900   147.8          496.0765       57.646506      310.85736      14649.728    
     74000   148            507.20664      58.939882      314.03618      13051.651    
     74100   148.2          516.54158      60.024648      314.02851      14554.537    
     74200   148.4          500.16227      58.121291      310.42512      14700.551    
     74300   148.6          471.39149      54.777987      309.06063      13076.44     
     74400   148.8          497.25021      57.782896      309.74161      16742.213    
     74500   149            509.37698      59.192086      311.08461      13614.037    
     74600   149.2          519.54498      60.373657      312.29431      13115.092    
     74700   149.4          513.35141      59.653934      313.25393      16038.52     
     74800   149.6          498.02613      57.873062      311.74196      15443.962    
     74900   149.8          486.61303      56.546804      308.58675      13904.647    
     75000   150            465.3939       54.081038      308.04581      14872.07     
     75100   150.2          500.06444      58.109923      310.85904      15551.973    
     75200   150.4          495.2444       57.549812      313.09232      11179.372    
     75300   150.6          508.81898      59.127244      312.25753      15623.109    
     75400   150.8          495.2993       57.556191      311.37016      13922.718    
     75500   151            497.96637      57.866118      310.67149      15052.094    
     75600   151.2          499.09808      57.997628      308.42463      15089.214    
     75700   151.4          483.66947      56.204748      305.65611      14917.816    
     75800   151.6          495.64314      57.596146      307.60703      12085.322    
     75900   151.8          486.44177      56.526903      310.57729      15830.508    
     76000   152            501.32487      58.256391      311.42277      14419.826    
     76100   152.2          491.62396      57.129099      311.43115      13209.984    
     76200   152.4          498.78844      57.961646      310.72288      15677.508    
     76300   152.6          489.02814      56.827452      308.5777       14333.659    
     76400   152.8          493.76086      57.377417      306.36918      13504.474    
     76500   153            496.91122      57.743503      307.39334      13332.575    
     76600   153.2          505.60035      58.753223      311.56138      16525.749    
     76700   153.4          516.30948      59.997676      311.72572      14105.534    
     76800   153.6          502.67413      58.413182      310.03607      13043.757    
     76900   153.8          488.42975      56.757915      307.65625      16279.551    
     77000   154            494.09731      57.416514      308.43771      12456.658    
     77100   154.2          530.06824      61.596511      313.48826      13652.951    
     77200   154.4          512.61188      59.567997      313.52131      14856.658    
     77300   154.6          497.49747      57.811629      311.10585      12851.679    
     77400   154.8          483.36672      56.169567      309.10865      14018.498    
     77500   155            503.41284      58.499023      308.76448      15029.92     
     77600   155.2          495.38845      57.566551      311.00005      13908.239    
     77700   155.4          532.17994      61.841901      314.97797      13972.654    
     77800   155.6          505.05562      58.689923      313.45878      15405.342    
     77900   155.8          499.03564      57.990372      310.93603      14083.51     
     78000   156            500.37051      58.14549       309.71295      15630.767    
     78100   156.2          499.71296      58.069079      309.67717      15971.294    
     78200   156.4          489.116        56.837662      310.37012      14485.811    
     78300   156.6          485.8286       56.455649      310.49589      15887.454    
     78400   156.8          480.11464      55.791659      310.63569      14025.284    
     78500   157            490.86558      57.040971      310.71492      15959.336    
     78600   157.2          509.57898      59.215559      312.27368      14834.43     
     78700   157.4          545.09411      63.342591      315.91664      15102.438    
     78800   157.6          519.01297      60.311835      313.84655      14755.931    
     78900   157.8          486.36543      56.518032      310.78131      15372.486    
     79000   158            492.01534      57.174578      309.7986       14705.749    
     79100   158.2          512.12052      59.510898      310.00724      14566.072    
     79200   158.4          510.0554       59.270922      311.07562      14456.066    
     79300   158.6          513.70696      59.695251      314.45328      14500.62     
     79400   158.8          528.41276      61.404137      314.59576      15450.102    
     79500   159            488.4915       56.765091      310.81751      15704.824    
     79600   159.2          474.85744      55.180747      309.55734      14775.301    
     79700   159.4          502.31939      58.371959      310.01088      13803.848    
     79800   159.6          512.8222       59.592437      312.3137       15930.618    
     79900   159.8          498.92162      57.977122      315.30818      12981.123    
     80000   160            521.31874      60.579777      316.60851      14272.805    
     80100   160.2          497.87172      57.855119      311.42401      14587.522    
     80200   160.4          499.38858      58.031385      309.28869      14910.374    
     80300   160.6          497.02021      57.756169      308.44113      12612.848    
     80400   160.8          483.25493      56.156576      309.88003      14342.107    
     80500   161            496.79767      57.730309      312.57635      16098.082    
     80600   161.2          506.84679      58.898065      313.80868      13464.712    
     80700   161.4          499.27016      58.017624      310.78998      15903.367    
     80800   161.6          481.15689      55.912774      308.01372      13410.563    
     80900   161.8          503.69772      58.532129      308.56884      13182.03     
     81000   162            495.46001      57.574866      310.81062      15255.675    
     81100   162.2          523.43721      60.825953      313.9011       16084.783    
     81200   162.4          517.07498      60.086631      314.62217      14531.362    
     81300   162.6          486.65311      56.551462      309.51595      15545.552    
     81400   162.8          487.77688      56.68205       307.89825      14264.479    
     81500   163            488.24729      56.736713      308.94595      14020.53     
     81600   163.2          509.76185      59.23681       311.40153      14063.613    
     81700   163.4          497.93459      57.862425      313.16444      15626.252    
     81800   163.6          502.20369      58.358515      312.50497      15121.516    
     81900   163.8          495.32678      57.559384      307.83365      13583.179    
     82000   164            483.07371      56.135518      307.18102      15335.204    
     82100   164.2          478.74195      55.632147      309.38722      14777.707    
     82200   164.4          510.19117      59.286698      311.93724      15939.322    
     82300   164.6          477.7333       55.514937      311.76677      14556.961    
     82400   164.8          505.24306      58.711705      310.78927      13265.175    
     82500   165            519.10003      60.321952      310.49374      14394.042    
     82600   165.2          509.6418       59.22286       310.72762      14555.175    
     82700   165.4          507.31967      58.953017      310.70996      13427.058    
     82800   165.6          500.754        58.190053      310.06697      15881.853    
     82900   165.8          480.09557      55.789443      306.09925      13321.3      
     83000   166            478.75077      55.633171      305.5299       15568.365    
     83100   166.2          475.03652      55.201557      308.94815      14655.055    
     83200   166.4          505.05534      58.68989       310.81098      12653.618    
     83300   166.6          509.66246      59.22526       311.47885      15039.743    
     83400   166.8          501.13976      58.234881      312.42614      14469.222    
     83500   167            493.75422      57.376645      311.78932      13828.83     
     83600   167.2          503.22099      58.47673       309.43314      14835.988    
     83700   167.4          506.35738      58.841194      307.87694      15109.093    
     83800   167.6          507.37925      58.959939      309.11241      12202.597    
     83900   167.8          509.24913      59.177229      312.94195      15741.147    
     84000   168            505.74186      58.769667      313.581        15341.901    
     84100   168.2          499.53562      58.048472      312.22829      14978.487    
     84200   168.4          489.5696       56.890371      310.28794      15119.214    
     84300   168.6          476.50819      55.372572      309.84234      14046.403    
     84400   168.8          515.77542      59.935616      310.09672      14086.932    
     84500   169            490.05686      56.946994      310.10759      13574.067    
     84600   169.2          498.74098      57.956131      309.3214       14580.15     
     84700   169.4          487.78094      56.682521      306.52791      14386.902    
     84800   169.6          494.46089      57.458764      305.43996      13996.494    
     84900   169.8          496.56519      57.703294      308.29924      14774.706    
     85000   170            488.34457      56.748017      310.70661      15303.36     
     85100   170.2          500.38758      58.147474      311.04527      12604.213    
     85200   170.4          512.755        59.584628      309.55913      15745.629    
     85300   170.6          490.78406      57.031498      306.10652      15541.962    
     85400   170.8          471.44123      54.783767      305.26018      13352.623    
     85500   171            511.99339      59.496126      310.42836      16047.081    
     85600   171.2          520.22857      60.453094      312.29823      13457.946    
     85700   171.4          505.99052      58.798563      311.80021      16903.076    
     85800   171.6          504.45867      58.620554      310.69943      13979.23     
     85900   171.8          498.54852      57.933766      308.05572      13768.819    
     86000   172            477.55626      55.494363      306.9149       14294.768    
     86100   172.2          491.68772      57.136508      309.95191      14621.952    
     86200   172.4          516.16966      59.981428      313.26035      14487.224    
     86300   172.6          515.68769      59.925421      312.16372      14852.864    
     86400   172.8          500.46717      58.156723      309.36706      16166.238    
     86500   173            489.54766      56.887823      307.55376      14836.021    
     86600   173.2          481.14872      55.911824      307.97585      14398.197    
     86700   173.4          507.76788      59.005101      309.3646       13967.748    
     86800   173.6          497.77702      57.844114      309.73126      16697.081    
     86900   173.8          507.84935      59.014568      310.04406      15622.993    
     87000   174            484.00996      56.244315      310.01502      15088.296    
[...]
    478600   957.2          497.09651      57.765036      310.24276      16454.69     
    478700   957.4          524.06443      60.898839      310.8585       14655.701    
    478800   957.6          510.51328      59.32413       310.76167      15002.393    
    478900   957.8          504.68465      58.646815      309.71166      15992.959    
    479000   958            483.34309      56.166821      307.17574      14482.301    
    479100   958.2          487.42991      56.64173       306.29777      15048.907    
    479200   958.4          501.64148      58.293183      309.29256      14685.501    
    479300   958.6          510.9753       59.377818      312.25195      16497.59     
    479400   958.8          494.68575      57.484893      312.0313       14906.417    
    479500   959            492.97158      57.285699      310.87311      14504.648    
    479600   959.2          488.8267       56.804043      310.06021      13166.774    
    479700   959.4          477.0549       55.436102      307.55979      14633.681    
    479800   959.6          480.9946       55.893915      305.64885      15409.548    
    479900   959.8          491.33008      57.094948      307.94609      14854.833    
    480000   960            521.43901      60.593753      310.94343      13261.849    
    480100   960.2          508.03025      59.035589      311.28168      16471.343    
    480200   960.4          494.18933      57.427207      310.85094      15666.08     
    480300   960.6          493.86259      57.389238      307.93555      15661.825    
    480400   960.8          478.89509      55.649941      305.29773      15424.498    
    480500   961            483.60732      56.197526      306.58705      12470.142    
    480600   961.2          487.4036       56.638672      308.85838      14171.621    
    480700   961.4          510.51622      59.324471      309.94758      15493.109    
    480800   961.6          514.21734      59.75456       311.11154      14009.416    
    480900   961.8          518.36716      60.236789      311.44288      13634.065    
    481000   962            484.18453      56.2646        309.71458      15956.232    
    481100   962.2          498.97116      57.982879      307.58417      12928.355    
    481200   962.4          480.95108      55.888858      307.66076      14498.024    
    481300   962.6          504.10367      58.579302      310.83444      15522.074    
    481400   962.8          527.9835       61.354254      313.1637       14426.595    
    481500   963            497.52436      57.814754      312.1517       15268.337    
    481600   963.2          497.96789      57.866294      310.85629      14523.851    
    481700   963.4          491.59108      57.125278      309.76314      14960.627    
    481800   963.6          504.51091      58.626625      309.46242      13415.607    
    481900   963.8          511.97528      59.494021      310.50163      14756.093    
    482000   964            503.18342      58.472364      314.86548      15172.418    
    482100   964.2          521.24986      60.571772      315.41527      16856.326    
    482200   964.4          508.9647       59.144177      311.85822      14322.313    
    482300   964.6          515.06978      59.853617      310.43947      15010.715    
    482400   964.8          512.22723      59.523299      309.84181      15296.499    
    482500   965            491.38181      57.100959      309.73529      14808.892    
    482600   965.2          507.79486      59.008236      310.87882      14594.087    
    482700   965.4          505.4024       58.730221      313.31606      15772.478    
    482800   965.6          527.15948      61.258499      313.79457      14887.918    
    482900   965.8          485.25737      56.38927       311.38488      14626.687    
    483000   966            495.98049      57.635349      308.48655      14659.169    
    483100   966.2          492.31052      57.20888       308.97518      15256.898    
    483200   966.4          500.08267      58.112042      310.64075      15018.477    
    483300   966.6          507.40677      58.963138      310.92745      15257.877    
    483400   966.8          489.91436      56.930435      311.51171      15758.196    
    483500   967            518.52236      60.254824      312.45215      14609.627    
    483600   967.2          509.57766      59.215406      313.92124      15417.45     
    483700   967.4          510.33062      59.302904      314.91318      15259.947    
    483800   967.6          503.98867      58.565938      311.34486      15340.186    
    483900   967.8          494.10329      57.417208      308.97436      13609.281    
    484000   968            489.55323      56.88847       309.05223      15099.589    
    484100   968.2          491.85595      57.156057      310.70254      14319.49     
    484200   968.4          522.56442      60.724531      314.78064      14270.822    
    484300   968.6          522.79531      60.751362      314.57526      13401.764    
    484400   968.8          515.17124      59.865408      312.48041      16390.059    
    484500   969            511.95705      59.491902      310.94927      14253.485    
    484600   969.2          504.78793      58.658816      309.82065      14520.108    
    484700   969.4          500.13109      58.117669      309.69417      15024.203    
    484800   969.6          504.65009      58.642799      312.73863      13076.856    
    484900   969.8          527.27415      61.271824      314.91065      14504.107    
    485000   970            515.29149      59.879381      312.52353      14866.808    
    485100   970.2          500.35255      58.143404      309.70462      13271.385    
    485200   970.4          499.5405       58.049039      308.96014      14094.679    
    485300   970.6          514.07108      59.737563      308.63449      15168.558    
    485400   970.8          498.72012      57.953707      309.27904      14393.034    
    485500   971            513.63468      59.686852      311.39351      16018.643    
    485600   971.2          501.83076      58.315178      313.201        15617.711    
    485700   971.4          516.86467      60.062192      312.03084      15431.436    
    485800   971.6          495.43959      57.572494      308.1068       14364.666    
    485900   971.8          489.47477      56.879352      307.72724      13409.103    
    486000   972            501.56904      58.284765      309.20884      14774.699    
    486100   972.2          506.52139      58.860253      311.26504      15087.17     
    486200   972.4          530.67624      61.667164      314.69759      13038.359    
    486300   972.6          524.36151      60.933362      317.49606      17460.376    
    486400   972.8          498.20848      57.894252      312.76541      15939.482    
    486500   973            511.53741      59.443139      310.362        15721.876    
    486600   973.2          495.41167      57.569248      308.98386      14624.434    
    486700   973.4          498.70423      57.951861      308.54532      15341.18     
    486800   973.6          496.37212      57.680858      309.05533      15577.816    
    486900   973.8          520.58903      60.494981      310.91042      14623.474    
    487000   974            509.62482      59.220886      313.06974      15278.354    
    487100   974.2          509.2647       59.179038      312.77373      13805.088    
    487200   974.4          493.30745      57.324728      308.37868      15387.33     
    487300   974.6          508.50098      59.09029       307.26184      13150.444    
    487400   974.8          493.8781       57.39104       308.25326      14460.198    
    487500   975            507.88774      59.019029      311.08848      13395.695    
    487600   975.2          499.36217      58.028316      313.12836      15132.727    
    487700   975.4          524.65793      60.967807      311.94164      15772.636    
    487800   975.6          490.53059      57.002044      306.88476      16418.504    
    487900   975.8          491.48817      57.113319      307.10273      13203.247    
    488000   976            488.98544      56.822489      309.6772       15261.694    
    488100   976.2          503.18566      58.472624      312.0698       17437.246    
    488200   976.4          505.63359      58.757086      311.93349      14046.01     
    488300   976.6          490.61678      57.012059      309.61663      14473.465    
    488400   976.8          503.33814      58.490344      305.70787      15163.597    
    488500   977            489.867        56.924932      305.42234      13557.365    
    488600   977.2          485.63615      56.433286      307.78525      15277.194    
    488700   977.4          510.95159      59.375063      309.53301      16139.553    
    488800   977.6          509.73063      59.233181      309.63807      14954.986    
    488900   977.8          503.41817      58.499643      308.91841      14652.288    
    489000   978            490.84643      57.038745      305.92769      14634.749    
    489100   978.2          483.12235      56.14117       303.66184      14022.176    
    489200   978.4          489.16206      56.843014      306.41889      16380.651    
    489300   978.6          502.49408      58.39226       308.4458       13839.297    
    489400   978.8          515.33131      59.884008      309.86479      15333.025    
    489500   979            504.37598      58.610945      310.48583      15741.418    
    489600   979.2          501.01134      58.219957      309.90188      15705.531    
    489700   979.4          502.27892      58.367257      307.49479      15788.95     
    489800   979.6          481.19064      55.916696      305.37918      14361.237    
    489900   979.8          490.27902      56.97281       306.85256      16898.009    
    490000   980            498.54553      57.933419      310.95315      14373.589    
    490100   980.2          482.4237       56.059983      311.47146      15189.906    
    490200   980.4          514.53338      59.791285      310.23454      14952.242    
    490300   980.6          503.98378      58.56537       307.96409      13904.58     
    490400   980.8          483.56758      56.192908      305.88806      14813.587    
    490500   981            471.87728      54.834438      304.21036      13340.627    
    490600   981.2          480.40742      55.825682      305.56757      12180.444    
    490700   981.4          500.42602      58.151941      309.40947      15163.844    
    490800   981.6          487.41582      56.640093      311.01023      12907.383    
    490900   981.8          512.05403      59.503172      311.38799      15304.34     
    491000   982            500.69223      58.182875      309.30388      15137.64     
    491100   982.2          469.78421      54.591213      306.15938      14380.43     
    491200   982.4          493.28772      57.322435      307.47949      13692.277    
    491300   982.6          511.27469      59.412609      309.74067      13531.517    
    491400   982.8          509.72642      59.232692      310.57478      15068.123    
    491500   983            521.57957      60.610086      310.13328      12888.525    
    491600   983.2          503.84849      58.549648      307.95973      14447.026    
    491700   983.4          487.84166      56.689577      305.49823      13300.781    
    491800   983.6          486.45046      56.527912      303.78775      14290.214    
    491900   983.8          478.62123      55.618118      306.55057      13696.846    
    492000   984            491.70487      57.138501      309.92055      13602.924    
    492100   984.2          511.00927      59.381766      310.63466      15685.06     
    492200   984.4          501.35142      58.259477      310.04908      14215.318    
    492300   984.6          480.10284      55.790289      307.96964      14542.501    
    492400   984.8          460.93812      53.563254      305.36154      13081.157    
    492500   985            492.67921      57.251724      306.75927      13156.574    
    492600   985.2          517.97145      60.190805      310.95798      15227.732    
    492700   985.4          516.05225      59.967785      310.893        14086.834    
    492800   985.6          510.55173      59.328598      309.56764      14627.84     
    492900   985.8          490.38349      56.98495       307.58009      14901.22     
    493000   986            477.53673      55.492094      307.37436      16170.217    
    493100   986.2          508.79954      59.124984      311.70917      15601.894    
    493200   986.4          509.07937      59.157503      312.53668      14516.239    
    493300   986.6          499.87037      58.087372      310.85477      14178.234    
    493400   986.8          505.04805      58.689044      308.40409      16849.478    
    493500   987            486.0118       56.476938      306.72072      13276.692    
    493600   987.2          512.30272      59.532071      308.93434      14321.153    
    493700   987.4          509.36655      59.190873      312.63998      15482.096    
    493800   987.6          500.6208       58.174575      312.73767      14231.615    
    493900   987.8          502.50783      58.393857      309.86788      13930.906    
    494000   988            489.2625       56.854685      307.83701      14865.834    
    494100   988.2          483.91676      56.233485      308.80965      13919.018    
    494200   988.4          516.26561      59.992578      310.98889      15943.431    
    494300   988.6          494.4533       57.457882      310.74338      15216.963    
    494400   988.8          503.99512      58.566687      310.34345      13274.697    
    494500   989            503.28155      58.483767      310.32937      14494.507    
    494600   989.2          485.96266      56.471228      309.89812      14841.398    
    494700   989.4          499.43013      58.036214      308.66695      12925.934    
    494800   989.6          483.77174      56.216633      307.39395      15063.636    
    494900   989.8          499.81843      58.081336      307.82057      12845.08     
    495000   990            508.23835      59.059771      311.40607      13013.86     
    495100   990.2          508.22891      59.058675      312.71715      15200.453    
    495200   990.4          498.78889      57.961699      311.21174      14126.478    
    495300   990.6          490.27248      56.97205       308.84605      13719.34     
    495400   990.8          500.39302      58.148106      307.9367       14353.577    
    495500   991            483.00801      56.127884      308.42073      14764.39     
    495600   991.2          484.54068      56.305987      309.03842      15308.423    
    495700   991.4          493.61868      57.360895      310.25756      13471.498    
    495800   991.6          500.17904      58.12324       311.75103      15158.517    
    495900   991.8          516.86171      60.061848      311.59955      14786.757    
    496000   992            504.05588      58.573748      308.65711      13075.237    
    496100   992.2          485.98763      56.47413       306.46165      14076.172    
    496200   992.4          477.66506      55.507007      308.42279      15331.134    
    496300   992.6          495.4008       57.567986      310.47273      13373.447    
    496400   992.8          501.36697      58.261283      310.95313      14180.905    
    496500   993            512.34437      59.536911      311.1243       16350.467    
    496600   993.2          503.78618      58.542407      311.33521      15659.015    
    496700   993.4          503.56569      58.516786      312.54937      15937.802    
    496800   993.6          503.3599       58.492872      312.91924      15574.434    
    496900   993.8          522.336        60.697987      310.48928      13540.639    
    497000   994            484.04274      56.248124      307.787        15614.74     
    497100   994.2          490.7009       57.021834      308.17488      14184.75     
    497200   994.4          506.427        58.849284      310.21019      13612.551    
    497300   994.6          504.56988      58.633478      314.95002      14949.493    
    497400   994.8          514.77434      59.819285      314.91324      14142.32     
    497500   995            516.32005      59.998905      312.47003      14111.693    
    497600   995.2          483.30105      56.161935      309.92279      14647.229    
    497700   995.4          488.67853      56.786825      308.79801      14625.567    
    497800   995.6          479.88036      55.764435      309.57956      12835.034    
    497900   995.8          508.51778      59.092243      313.01558      13068.524    
    498000   996            542.11864      62.996826      315.96139      15906.888    
    498100   996.2          527.08188      61.249482      313.81647      15585.391    
    498200   996.4          503.99512      58.566687      311.66417      14361.037    
    498300   996.6          497.99395      57.869322      309.87268      14435.602    
    498400   996.8          494.81459      57.499865      308.7362       14743.864    
    498500   997            480.31946      55.81546       308.33349      14016.309    
    498600   997.2          484.51108      56.302547      309.5716       14246.959    
    498700   997.4          510.57634      59.331457      312.50375      13295.186    
    498800   997.6          518.96458      60.306212      313.84385      15316.949    
    498900   997.8          483.90456      56.232066      312.08648      15387.866    
    499000   998            480.42076      55.827232      308.28991      14266.083    
    499100   998.2          501.78027      58.309312      308.51637      15434.854    
    499200   998.4          517.77588      60.168079      309.6965       15297.835    
    499300   998.6          507.62193      58.988141      311.31902      14912.887    
    499400   998.8          519.17214      60.330331      315.35132      15360.859    
    499500   999            523.53965      60.837857      315.80529      15266.329    
    499600   999.2          517.29876      60.112636      313.17118      14825.42     
    499700   999.4          503.50478      58.509708      311.44762      15383.773    
    499800   999.6          485.40596      56.406537      309.44385      13265.197    
    499900   999.8          506.84343      58.897675      308.18272      13608.954    
    500000   1000           481.85775      55.994218      308.58764      16504.045    
Loop time of 327.802 on 1 procs for 500000 steps with 900 atoms

Performance: 263.574 ns/day, 0.091 hours/ns, 1525.310 timesteps/s
54.3% CPU use with 1 MPI tasks x no OpenMP threads

MPI task timing breakdown:
Section |  min time  |  avg time  |  max time  |%varavg| %total
---------------------------------------------------------------
Pair    | 209.33     | 209.33     | 209.33     |   0.0 | 63.86
Neigh   | 106.22     | 106.22     | 106.22     |   0.0 | 32.40
Comm    | 3.9202     | 3.9202     | 3.9202     |   0.0 |  1.20
Output  | 2.1468     | 2.1468     | 2.1468     |   0.0 |  0.65
Modify  | 5.4756     | 5.4756     | 5.4756     |   0.0 |  1.67
Other   |            | 0.712      |            |       |  0.22

Nlocal:            900 ave         900 max         900 min
Histogram: 1 0 0 0 0 0 0 0 0 0
Nghost:           2770 ave        2770 max        2770 min
Histogram: 1 0 0 0 0 0 0 0 0 0
Neighs:              0 ave           0 max           0 min
Histogram: 1 0 0 0 0 0 0 0 0 0
FullNghs:        99488 ave       99488 max       99488 min
Histogram: 1 0 0 0 0 0 0 0 0 0

Total # of neighbors = 99488
Ave neighs/atom = 110.54222
Neighbor list builds = 50000
Dangerous builds not checked

Total wall time: 0:05:47
