ITEM: TIMESTEP
0
ITEM: NUMBER OF ATOMS
56
ITEM: BOX BOUNDS xy xz yz pp pp pp
-5.2624731063842773e+00 1.2206987559795380e+01 -4.7683715820312500e-07
-7.5370073318481445e-03 5.5339480042457581e+00 -5.2405849099159241e+00
-3.2569408416748047e-02 1.9052529454231262e+01 2.8610229492187500e-06
ITEM: ATOMS id type xs ys zs fx fy fz
1 1 0.606296 1 0.132369 0 -0.0896767 0.290414
2 1 0.356296 0.166667 0.132369 0 0.0896769 0.290414
3 1 0.30441 1 0.275226 0 0.00201964 -0.00607669
4 1 0.0544105 0.166667 0.275226 0 -0.00201976 -0.00607657
5 1 0.00252633 5.00995e-07 0.418084 0 -0.000188351 0.000756741
6 1 0.106296 1 0.132369 0 -0.0896769 0.290414
7 1 0.00723874 0.5 0.0609408 0 1.50557 1.39144
8 1 0.856296 0.166667 0.132369 0 0.0896767 0.290414
9 1 0.757239 0.666667 0.0609408 0 -1.50557 1.39145
10 1 0.80441 1 0.275226 0 0.00201964 -0.00607681
11 1 0.752526 0.166667 0.418084 0 0.000188828 0.000757217
12 1 0.700643 5.53965e-07 0.560941 0 -1.78814e-06 -1.5378e-05
13 1 0.450643 0.166667 0.560941 0 1.90735e-06 -1.54972e-05
14 1 0.398759 1.60387e-07 0.703798 0 4.29153e-05 -0.00225294
15 1 0.148759 0.166667 0.703798 0 -4.26769e-05 -0.00225246
16 1 0.096874 1 0.846655 0 -0.00162506 0.00830269
17 1 0.705353 0.5 0.203798 0 -0.00162458 -0.00830185
18 1 0.55441 0.166667 0.275226 0 -0.00201976 -0.00607669
19 1 0.455353 0.666667 0.203798 0 0.00162554 -0.00830197
20 1 0.502526 5.02326e-07 0.418084 0 -0.00018847 0.000756621
21 1 0.403468 0.5 0.346655 0 4.26769e-05 0.00225258
22 1 0.252526 0.166667 0.418084 0 0.000188828 0.000756979
23 1 0.153468 0.666667 0.346655 0 -4.30346e-05 0.00225258
24 1 0.200643 5.42012e-07 0.560941 0 -1.3113e-06 -1.57356e-05
25 1 0.101584 0.500001 0.489512 0 -2.02656e-06 1.58548e-05
26 1 0.950643 0.166667 0.560941 0 2.02656e-06 -1.63317e-05
27 1 0.851584 0.666667 0.489512 0 1.54972e-06 1.58548e-05
28 1 0.507239 0.5 0.0609408 0 1.50556 1.39144
29 1 0.257239 0.666667 0.0609408 0 -1.50557 1.39145
30 1 0.205353 0.5 0.203798 0 -0.00162482 -0.00830221
31 1 0.955353 0.666667 0.203798 0 0.00162518 -0.00830197
32 1 0.903468 0.5 0.346655 0 4.29153e-05 0.0022527
33 1 0.846874 0.166667 0.846655 0 0.00162482 0.00830233
34 1 0.794988 1 0.989512 0 1.50557 -1.39145
35 1 0.544988 0.166667 0.989512 0 -1.50557 -1.39144
36 1 0.898759 1.92026e-07 0.703798 0 4.29153e-05 -0.00225282
37 1 0.799701 0.500001 0.632369 0 -0.000189066 -0.000756979
38 1 0.648759 0.166667 0.703798 0 -4.25577e-05 -0.00225317
39 1 0.549701 0.666667 0.632369 0 0.000188351 -0.00075686
40 1 0.596874 1 0.846655 0 -0.00162494 0.00830269
41 1 0.497817 0.5 0.775226 0 0.00201988 0.00607657
42 1 0.346874 0.166667 0.846655 0 0.00162506 0.00830185
43 1 0.247817 0.666667 0.775226 0 -0.00201941 0.00607657
44 1 0.294988 1 0.989512 0 1.50557 -1.39145
45 1 0.195931 0.5 0.918083 0 -0.0896772 -0.290414
46 1 0.653468 0.666667 0.346655 0 -4.3273e-05 0.00225258
47 1 0.601584 0.500001 0.489512 0 -1.78814e-06 1.56164e-05
48 1 0.351584 0.666667 0.489512 0 1.43051e-06 1.56164e-05
49 1 0.299701 0.5 0.632369 0 -0.000189066 -0.000756741
50 1 0.0497008 0.666667 0.632369 0 0.000188351 -0.000756741
51 1 0.997817 0.5 0.775226 0 0.00202 0.00607646
52 1 0.0449884 0.166667 0.989512 0 -1.50557 -1.39145
53 1 0.945931 0.666667 0.918083 0 0.089677 -0.290414
54 1 0.747817 0.666667 0.775226 0 -0.00201941 0.00607646
55 1 0.695931 0.5 0.918083 0 -0.0896772 -0.290414
56 1 0.445931 0.666667 0.918083 0 0.0896767 -0.290414
ITEM: TIMESTEP
1
ITEM: NUMBER OF ATOMS
56
ITEM: BOX BOUNDS xy xz yz pp pp pp
-5.2624731063842773e+00 1.2206987559795380e+01 -4.7683715820312500e-07
-7.5370073318481445e-03 5.5339480042457581e+00 -5.2405849099159241e+00
-3.2569408416748047e-02 1.9052529454231262e+01 2.8610229492187500e-06
ITEM: ATOMS id type xs ys zs fx fy fz
1 1 0.606729 0.998925 0.13338 0 0.0727319 0.168813
2 1 0.356729 0.167742 0.13338 0 -0.0727324 0.168814
3 1 0.304401 1.00002 0.275205 0 -0.00136387 0.0201135
4 1 0.0544014 0.166643 0.275205 0 0.00136447 0.0201141
5 1 0.00252746 -1.75658e-06 0.418086 0 -0.000686407 -0.00134158
6 1 0.106729 0.998925 0.13338 0 0.0727323 0.168814
7 1 0.00931396 0.518045 0.0657833 0 0.500468 0.448026
8 1 0.856729 0.167742 0.13338 0 -0.0727327 0.168814
9 1 0.759314 0.648622 0.0657833 0 -0.500467 0.448026
10 1 0.804401 1.00002 0.275205 0 -0.00136375 0.0201133
11 1 0.752527 0.166669 0.418086 0 0.000686288 -0.00134146
12 1 0.700643 5.32533e-07 0.560941 0 0.000175238 0.000703454
13 1 0.450643 0.166667 0.560941 0 -0.000174761 0.000703573
14 1 0.398755 6.74774e-07 0.70379 0 -0.00151229 -0.008968
15 1 0.148755 0.166666 0.70379 0 0.00151241 -0.00896764
16 1 0.0968864 0.99998 0.846684 0 -0.0211974 -0.113979
17 1 0.705341 0.49998 0.203769 0 -0.0211973 0.113979
18 1 0.554401 0.166643 0.275205 0 0.00136459 0.0201142
19 1 0.455341 0.666687 0.203769 0 0.0211977 0.113979
20 1 0.502527 -1.75667e-06 0.418086 0 -0.000686407 -0.00134158
21 1 0.403472 0.500001 0.346663 0 -0.00151265 0.00896764
22 1 0.252527 0.166669 0.418086 0 0.000686288 -0.00134194
23 1 0.153472 0.666666 0.346663 0 0.00151193 0.00896776
24 1 0.200643 5.26294e-07 0.560941 0 0.000175118 0.000703335
25 1 0.101584 0.500001 0.489512 0 0.000174642 -0.000703454
26 1 0.950643 0.166667 0.560941 0 -0.000174522 0.000703096
27 1 0.851584 0.666667 0.489512 0 -0.000175238 -0.000703216
28 1 0.509314 0.518045 0.0657833 0 0.500468 0.448026
29 1 0.259314 0.648622 0.0657833 0 -0.500468 0.448026
30 1 0.205341 0.49998 0.203769 0 -0.0211974 0.113979
31 1 0.955341 0.666687 0.203769 0 0.0211973 0.113979
32 1 0.903472 0.500001 0.346663 0 -0.00151229 0.008968
33 1 0.846886 0.166687 0.846684 0 0.0211971 -0.113979
34 1 0.792913 1.01805 0.98467 0 0.500467 -0.448026
35 1 0.542913 0.148622 0.98467 0 -0.500468 -0.448026
36 1 0.898755 7.06413e-07 0.70379 0 -0.00151229 -0.00896788
37 1 0.7997 0.499998 0.632367 0 -0.000686049 0.0013423
38 1 0.648755 0.166666 0.70379 0 0.00151193 -0.00896788
39 1 0.5497 0.666669 0.632367 0 0.000686169 0.00134134
40 1 0.596886 0.99998 0.846684 0 -0.0211973 -0.113979
41 1 0.497826 0.500024 0.775248 0 -0.00136411 -0.0201137
42 1 0.346886 0.166687 0.846684 0 0.0211977 -0.113979
43 1 0.247826 0.666643 0.775248 0 0.00136411 -0.0201137
44 1 0.292913 1.01805 0.98467 0 0.500468 -0.448026
45 1 0.195498 0.498925 0.917073 0 0.0727322 -0.168814
46 1 0.653472 0.666666 0.346663 0 0.00151169 0.00896704
47 1 0.601584 0.500001 0.489512 0 0.000174999 -0.000703931
48 1 0.351584 0.666667 0.489512 0 -0.000175238 -0.000703216
49 1 0.2997 0.499998 0.632367 0 -0.000686049 0.00134206
50 1 0.0496996 0.666669 0.632367 0 0.000686288 0.00134158
51 1 0.997826 0.500024 0.775248 0 -0.00136435 -0.0201139
52 1 0.0429131 0.148622 0.98467 0 -0.500468 -0.448026
53 1 0.945498 0.667742 0.917073 0 -0.072732 -0.168813
54 1 0.747826 0.666643 0.775248 0 0.00136411 -0.0201138
55 1 0.695498 0.498925 0.917073 0 0.0727323 -0.168814
56 1 0.445498 0.667742 0.917073 0 -0.0727321 -0.168814
ITEM: TIMESTEP
2
ITEM: NUMBER OF ATOMS
56
ITEM: BOX BOUNDS xy xz yz pp pp pp
-5.2624731063842773e+00 1.2206987559795380e+01 -4.7683715820312500e-07
-7.5370073318481445e-03 5.5339480042457581e+00 -5.2405849099159241e+00
-3.2569408416748047e-02 1.9052529454231262e+01 2.8610229492187500e-06
ITEM: ATOMS id type xs ys zs fx fy fz
1 1 0.607404 1.00126 0.134954 0 0.176028 0.0612458
2 1 0.357404 0.165406 0.134954 0 -0.176028 0.061246
3 1 0.304482 0.99998 0.275393 0 -0.0066179 0.0526655
4 1 0.0544818 0.166687 0.275393 0 0.00661755 0.0526652
5 1 0.0025221 -2.3804e-05 0.418074 0 -0.00201988 0.00335991
6 1 0.107404 1.00126 0.134954 0 0.176028 0.0612456
7 1 0.0111046 0.53412 0.0699617 0 -0.0132772 -0.112821
8 1 0.857404 0.165406 0.134954 0 -0.176028 0.0612459
9 1 0.761105 0.632547 0.0699617 0 0.0132773 -0.11282
10 1 0.804482 0.99998 0.275393 0 -0.00661767 0.0526657
11 1 0.752522 0.166691 0.418074 0 0.00201964 0.00336039
12 1 0.700645 6.16117e-06 0.560947 0 -0.000465989 -0.00158489
13 1 0.450645 0.166661 0.560947 0 0.00046587 -0.00158501
14 1 0.39872 -4.79e-05 0.703706 0 -0.00444269 -0.0284083
15 1 0.14872 0.166715 0.703706 0 0.00444341 -0.0284085
16 1 0.0964308 0.999299 0.845621 0 -0.0205061 -0.188982
17 1 0.705796 0.499299 0.204832 0 -0.0205058 0.188981
18 1 0.554482 0.166687 0.275393 0 0.00661755 0.0526651
19 1 0.455796 0.667368 0.204832 0 0.0205063 0.188982
20 1 0.502522 -2.38041e-05 0.418074 0 -0.00201976 0.00335956
21 1 0.403507 0.499952 0.346747 0 -0.00444293 0.0284086
22 1 0.252522 0.166691 0.418074 0 0.00201929 0.00336039
23 1 0.153508 0.666715 0.346747 0 0.00444317 0.0284082
24 1 0.200645 6.1511e-06 0.560947 0 -0.000466228 -0.00158525
25 1 0.101582 0.500006 0.489506 0 -0.000466108 0.00158525
26 1 0.950645 0.166661 0.560947 0 0.000465989 -0.0015856
27 1 0.851582 0.666661 0.489506 0 0.000466108 0.00158513
28 1 0.511105 0.534121 0.0699617 0 -0.0132776 -0.112821
29 1 0.261105 0.632547 0.0699617 0 0.0132775 -0.112821
30 1 0.205796 0.499299 0.204832 0 -0.0205055 0.188982
31 1 0.955796 0.667368 0.204832 0 0.0205065 0.188982
32 1 0.903507 0.499952 0.346747 0 -0.00444317 0.0284082
33 1 0.846431 0.167368 0.845621 0 0.020506 -0.188982
34 1 0.791123 1.03412 0.980491 0 -0.0132772 0.11282
35 1 0.541123 0.132547 0.980491 0 0.0132773 0.112821
36 1 0.89872 -4.78683e-05 0.703706 0 -0.00444281 -0.0284082
37 1 0.799705 0.499976 0.632379 0 -0.00201952 -0.00336051
38 1 0.64872 0.166715 0.703706 0 0.00444281 -0.0284086
39 1 0.549705 0.666691 0.632379 0 0.00201952 -0.00335968
40 1 0.596431 0.999299 0.845621 0 -0.020506 -0.188981
41 1 0.497745 0.49998 0.77506 0 -0.00661707 -0.0526651
42 1 0.346431 0.167368 0.845621 0 0.0205059 -0.188982
43 1 0.247745 0.666687 0.77506 0 0.00661767 -0.0526652
44 1 0.291123 1.03412 0.980491 0 -0.0132778 0.112821
45 1 0.194823 0.501261 0.915498 0 0.176028 -0.0612459
46 1 0.653508 0.666715 0.346747 0 0.00444317 0.0284082
47 1 0.601582 0.500006 0.489506 0 -0.000465989 0.00158536
48 1 0.351582 0.666661 0.489506 0 0.000466108 0.00158477
49 1 0.299705 0.499976 0.632379 0 -0.00201952 -0.00336039
50 1 0.049705 0.666691 0.632379 0 0.00201964 -0.00335991
51 1 0.997745 0.49998 0.77506 0 -0.0066179 -0.0526646
52 1 0.0411225 0.132547 0.980491 0 0.0132772 0.112821
53 1 0.944823 0.665406 0.915498 0 -0.176028 -0.0612459
54 1 0.747745 0.666687 0.77506 0 0.00661767 -0.0526652
55 1 0.694823 0.501261 0.915498 0 0.176028 -0.061246
56 1 0.444823 0.665406 0.915498 0 -0.176028 -0.0612457
ITEM: TIMESTEP
3
ITEM: NUMBER OF ATOMS
56
ITEM: BOX BOUNDS xy xz yz pp pp pp
-5.2624731063842773e+00 1.2206987559795380e+01 -4.7683715820312500e-07
-7.5370073318481445e-03 5.5339480042457581e+00 -5.2405849099159241e+00
-3.2569408416748047e-02 1.9052529454231262e+01 2.8610229492187500e-06
ITEM: ATOMS id type xs ys zs fx fy fz
1 1 0.608215 1.01439 0.136847 0 -0.00685835 0.0055052
2 1 0.358215 0.152275 0.136847 0 0.0068593 0.00550449
3 1 0.304968 0.999505 0.276527 0 -0.00844359 0.0747968
4 1 0.0549678 0.167162 0.276527 0 0.00844383 0.0747972
5 1 0.00254867 -0.000172465 0.418136 0 -0.00559843 0.0278649
6 1 0.108215 1.01439 0.136847 0 -0.00685835 0.00550544
7 1 0.010893 0.539999 0.069468 0 0.0170239 -0.00458169
8 1 0.858215 0.152275 0.136847 0 0.00685894 0.00550437
9 1 0.760893 0.626668 0.069468 0 -0.0170239 -0.00458288
10 1 0.804968 0.999505 0.276527 0 -0.00844347 0.074797
11 1 0.752549 0.16684 0.418136 0 0.00559807 0.0278643
12 1 0.700633 -2.3606e-05 0.560918 0 -0.00449085 -0.0130391
13 1 0.450633 0.166691 0.560918 0 0.00449085 -0.0130396
14 1 0.398461 -0.000374911 0.703102 0 -0.0116613 -0.0861764
15 1 0.148461 0.167042 0.703102 0 0.0116614 -0.086177
16 1 0.0946161 0.997597 0.841386 0 0.0621492 0.0382817
17 1 0.707611 0.497597 0.209067 0 0.062149 -0.0382819
18 1 0.554968 0.167162 0.276527 0 0.00844359 0.074797
19 1 0.457611 0.66907 0.209067 0 -0.0621496 -0.0382817
20 1 0.502549 -0.000172457 0.418136 0 -0.00559819 0.0278654
21 1 0.403766 0.499625 0.347351 0 -0.0116616 0.0861765
22 1 0.252549 0.16684 0.418136 0 0.00559855 0.0278646
23 1 0.153767 0.667042 0.347351 0 0.0116609 0.0861764
24 1 0.200633 -2.36342e-05 0.560918 0 -0.00449085 -0.0130389
25 1 0.101594 0.499976 0.489535 0 -0.00449085 0.0130392
26 1 0.950633 0.166691 0.560918 0 0.00449085 -0.013039
27 1 0.851594 0.666691 0.489535 0 0.00449097 0.0130386
28 1 0.510893 0.539999 0.069468 0 0.017024 -0.00458181
29 1 0.260893 0.626668 0.069468 0 -0.0170244 -0.00458181
30 1 0.207611 0.497597 0.209067 0 0.062149 -0.0382823
31 1 0.957611 0.66907 0.209067 0 -0.0621498 -0.0382814
32 1 0.903766 0.499625 0.347351 0 -0.0116614 0.0861769
33 1 0.844616 0.16907 0.841386 0 -0.0621492 0.0382817
34 1 0.791334 1.04 0.980985 0 0.0170234 0.00458276
35 1 0.541334 0.126668 0.980985 0 -0.0170237 0.00458205
36 1 0.898461 -0.000374888 0.703102 0 -0.0116615 -0.0861766
37 1 0.799678 0.499828 0.632317 0 -0.00559843 -0.0278645
38 1 0.648461 0.167042 0.703102 0 0.0116615 -0.0861765
39 1 0.549678 0.66684 0.632317 0 0.00559843 -0.0278643
40 1 0.594616 0.997597 0.841386 0 0.0621493 0.0382811
41 1 0.497259 0.499505 0.773926 0 -0.00844395 -0.0747973
42 1 0.344616 0.16907 0.841386 0 -0.0621493 0.0382818
43 1 0.247259 0.667162 0.773926 0 0.00844383 -0.0747974
44 1 0.291334 1.04 0.980985 0 0.0170244 0.00458205
45 1 0.194013 0.514392 0.913606 0 -0.00685883 -0.00550449
46 1 0.653766 0.667042 0.347351 0 0.0116613 0.0861769
47 1 0.601594 0.499976 0.489535 0 -0.00449073 0.0130389
48 1 0.351594 0.666691 0.489535 0 0.00449073 0.0130391
49 1 0.299678 0.499828 0.632317 0 -0.00559819 -0.0278642
50 1 0.0496784 0.66684 0.632317 0 0.00559843 -0.0278646
51 1 0.997259 0.499505 0.773926 0 -0.00844336 -0.0747972
52 1 0.0413341 0.126668 0.980985 0 -0.0170238 0.00458169
53 1 0.944013 0.652275 0.913606 0 0.00685823 -0.00550508
54 1 0.747259 0.667162 0.773926 0 0.00844359 -0.0747973
55 1 0.694012 0.514392 0.913606 0 -0.00685835 -0.00550425
56 1 0.444012 0.652275 0.913606 0 0.00685859 -0.00550497
ITEM: TIMESTEP
4
ITEM: NUMBER OF ATOMS
56
ITEM: BOX BOUNDS xy xz yz pp pp pp
-5.2624731063842773e+00 1.2206987559795380e+01 -4.7683715820312500e-07
-7.5370073318481445e-03 5.5339480042457581e+00 -5.2405849099159241e+00
-3.2569408416748047e-02 1.9052529454231262e+01 2.8610229492187500e-06
ITEM: ATOMS id type xs ys zs fx fy fz
1 1 0.608599 1.01875 0.137744 0 -0.0194484 0.0340488
2 1 0.358599 0.147917 0.137744 0 0.019447 0.0340495
3 1 0.306123 0.998444 0.279223 0 0.019454 -0.0106597
4 1 0.056123 0.168223 0.279223 0 -0.0194545 -0.0106604
5 1 0.00291936 -0.000811846 0.419001 0 -0.00735223 0.0450803
6 1 0.108599 1.01875 0.137744 0 -0.0194483 0.0340487
7 1 0.010752 0.544039 0.0691391 0 -0.00115395 -0.010542
8 1 0.858599 0.147917 0.137744 0 0.0194477 0.0340502
9 1 0.760752 0.622628 0.0691391 0 0.00115407 -0.01054
10 1 0.806123 0.998444 0.279223 0 0.0194541 -0.0106603
11 1 0.752919 0.167479 0.419001 0 0.00735295 0.0450807
12 1 0.70046 -0.000501938 0.560513 0 -0.0128862 -0.0294176
13 1 0.45046 0.167169 0.560513 0 0.0128865 -0.029417
14 1 0.397246 -0.00171342 0.700267 0 0.00392902 0.0159295
15 1 0.147246 0.168381 0.700267 0 -0.0039289 0.0159305
16 1 0.0944105 1.0034 0.840906 0 0.00338423 -0.00613153
17 1 0.707817 0.5034 0.209546 0 0.00338435 0.00613236
18 1 0.556123 0.168223 0.279223 0 -0.0194541 -0.0106601
19 1 0.457817 0.663267 0.209546 0 -0.00338423 0.00613165
20 1 0.502919 -0.00081181 0.419001 0 -0.00735295 0.0450799
21 1 0.404981 0.498287 0.350185 0 0.00392926 -0.0159305
22 1 0.252919 0.167479 0.419001 0 0.00735223 0.0450807
23 1 0.154981 0.668381 0.350185 0 -0.00392842 -0.0159293
24 1 0.20046 -0.000501973 0.560514 0 -0.0128862 -0.0294178
25 1 0.101768 0.499498 0.489939 0 -0.0128862 0.029418
26 1 0.95046 0.167169 0.560513 0 0.0128864 -0.0294174
27 1 0.851767 0.667169 0.489939 0 0.012886 0.0294186
28 1 0.510752 0.544039 0.0691391 0 -0.00115383 -0.0105419
29 1 0.260752 0.622628 0.0691391 0 0.00115502 -0.0105417
30 1 0.207817 0.5034 0.209546 0 0.00338423 0.00613248
31 1 0.957817 0.663267 0.209546 0 -0.00338364 0.00613141
32 1 0.904981 0.498287 0.350185 0 0.00392902 -0.0159301
33 1 0.84441 0.163267 0.840906 0 -0.00338483 -0.00613189
34 1 0.791475 1.04404 0.981314 0 -0.00115359 0.0105398
35 1 0.541475 0.122628 0.981314 0 0.00115383 0.0105416
36 1 0.897246 -0.00171342 0.700267 0 0.00392902 0.0159297
37 1 0.799308 0.499188 0.631452 0 -0.00735295 -0.045081
38 1 0.647246 0.168381 0.700267 0 -0.00392914 0.0159298
39 1 0.549308 0.667479 0.631452 0 0.00735283 -0.045082
40 1 0.59441 1.0034 0.840906 0 0.00338423 -0.00613105
41 1 0.496104 0.498444 0.77123 0 0.0194541 0.0106603
42 1 0.34441 0.163267 0.840906 0 -0.00338399 -0.00613165
43 1 0.246104 0.668223 0.77123 0 -0.0194541 0.0106602
44 1 0.291475 1.04404 0.981314 0 -0.00115478 0.0105417
45 1 0.193628 0.51875 0.912709 0 -0.0194472 -0.0340496
46 1 0.654981 0.668381 0.350185 0 -0.00392842 -0.0159299
47 1 0.601767 0.499498 0.489939 0 -0.012887 0.0294182
48 1 0.351767 0.667169 0.489939 0 0.0128862 0.0294181
49 1 0.299308 0.499188 0.631452 0 -0.00735295 -0.0450814
50 1 0.0493077 0.667479 0.631452 0 0.00735259 -0.045081
51 1 0.996104 0.498444 0.77123 0 0.0194534 0.0106595
52 1 0.0414751 0.122628 0.981314 0 0.00115395 0.010542
53 1 0.943628 0.647917 0.912709 0 0.0194485 -0.0340486
54 1 0.746104 0.668223 0.77123 0 -0.0194538 0.0106608
55 1 0.693628 0.51875 0.912709 0 -0.0194482 -0.0340503
56 1 0.443628 0.647917 0.912709 0 0.019448 -0.034049
ITEM: TIMESTEP
5
ITEM: NUMBER OF ATOMS
56
ITEM: BOX BOUNDS xy xz yz pp pp pp
-5.2624731063842773e+00 1.2206987559795380e+01 -4.7683715820312500e-07
-7.5370073318481445e-03 5.5339480042457581e+00 -5.2405849099159241e+00
-3.2569408416748047e-02 1.9052529454231262e+01 2.8610229492187500e-06
ITEM: ATOMS id type xs ys zs fx fy fz
1 1 0.608934 1.01831 0.138525 0 -0.0108414 0.00501871
2 1 0.358934 0.148361 0.138525 0 0.0108422 0.00501895
3 1 0.306246 0.999477 0.27951 0 0.0104294 0.0108396
4 1 0.056246 0.16719 0.27951 0 -0.0104294 0.0108398
5 1 0.00333796 -0.00138792 0.419978 0 -0.00647354 -0.00394595
6 1 0.108934 1.01831 0.138525 0 -0.0108417 0.00501883
7 1 0.0106445 0.544688 0.068888 0 0.00150096 -0.0107514
8 1 0.858934 0.148361 0.138525 0 0.0108418 0.00501812
9 1 0.760644 0.621979 0.068888 0 -0.00150132 -0.0107521
10 1 0.806246 0.999477 0.27951 0 0.0104293 0.0108395
11 1 0.753338 0.168055 0.419978 0 0.00647378 -0.00394583
12 1 0.700199 -0.00139689 0.559905 0 -0.00544977 0.0125209
13 1 0.450199 0.168064 0.559905 0 0.00544882 0.0125214
14 1 0.397153 -0.00170568 0.700052 0 0.00378478 0.00444043
15 1 0.147153 0.168373 0.700052 0 -0.00378537 0.00444043
16 1 0.0943258 1.00465 0.840709 0 -0.00675786 -0.00172961
17 1 0.707901 0.504649 0.209744 0 -0.00675797 0.00172961
18 1 0.556246 0.16719 0.27951 0 -0.0104299 0.0108398
19 1 0.457901 0.662018 0.209744 0 0.00675833 0.00172949
20 1 0.503338 -0.00138793 0.419978 0 -0.00647366 -0.00394571
21 1 0.405074 0.498294 0.350401 0 0.00378513 -0.00443995
22 1 0.253338 0.168055 0.419978 0 0.0064739 -0.00394607
23 1 0.155074 0.668373 0.350401 0 -0.00378489 -0.00443983
24 1 0.200199 -0.00139693 0.559905 0 -0.00544906 0.012521
25 1 0.102028 0.498603 0.490548 0 -0.0054493 -0.0125221
26 1 0.950199 0.168064 0.559905 0 0.00544882 0.0125215
27 1 0.852028 0.668064 0.490548 0 0.0054493 -0.0125215
28 1 0.510644 0.544688 0.068888 0 0.00150049 -0.0107514
29 1 0.260644 0.621979 0.068888 0 -0.00150132 -0.0107514
30 1 0.207901 0.504649 0.209744 0 -0.00675857 0.00172961
31 1 0.957901 0.662018 0.209744 0 0.00675786 0.00173008
32 1 0.905074 0.498294 0.350401 0 0.00378501 -0.00444031
33 1 0.844326 0.162018 0.840709 0 0.00675833 -0.00172949
34 1 0.791583 1.04469 0.981565 0 0.00150108 0.0107521
35 1 0.541583 0.121979 0.981565 0 -0.00150108 0.0107517
36 1 0.897153 -0.00170569 0.700052 0 0.00378442 0.00443983
37 1 0.798889 0.498612 0.630475 0 -0.00647306 0.00394642
38 1 0.647153 0.168373 0.700052 0 -0.0037843 0.00444031
39 1 0.548889 0.668055 0.630475 0 0.0064733 0.00394607
40 1 0.594326 1.00465 0.840709 0 -0.00675809 -0.00172973
41 1 0.495981 0.499477 0.770943 0 0.0104297 -0.0108396
42 1 0.344326 0.162018 0.840709 0 0.00675809 -0.00172949
43 1 0.245981 0.66719 0.770943 0 -0.0104294 -0.0108393
44 1 0.291583 1.04469 0.981565 0 0.00150156 0.0107512
45 1 0.193293 0.518306 0.911928 0 -0.0108423 -0.00501919
46 1 0.655074 0.668373 0.350401 0 -0.00378489 -0.00443971
47 1 0.602028 0.498603 0.490548 0 -0.00544894 -0.0125219
48 1 0.352028 0.668064 0.490548 0 0.00544965 -0.0125214
49 1 0.298889 0.498612 0.630475 0 -0.00647366 0.00394619
50 1 0.0488891 0.668055 0.630475 0 0.00647414 0.00394619
51 1 0.995981 0.499477 0.770943 0 0.01043 -0.0108395
52 1 0.0415826 0.121979 0.981565 0 -0.00150073 0.0107512
53 1 0.943293 0.648361 0.911928 0 0.0108415 -0.00501907
54 1 0.745981 0.66719 0.770943 0 -0.0104302 -0.0108398
55 1 0.693293 0.518306 0.911928 0 -0.0108417 -0.00501871
56 1 0.443293 0.648361 0.911928 0 0.0108417 -0.00501919
ITEM: TIMESTEP
6
ITEM: NUMBER OF ATOMS
56
ITEM: BOX BOUNDS xy xz yz pp pp pp
-5.2624731063842773e+00 1.2206987559795380e+01 -4.7683715820312500e-07
-7.5370073318481445e-03 5.5339480042457581e+00 -5.2405849099159241e+00
-3.2569408416748047e-02 1.9052529454231262e+01 2.8610229492187500e-06
ITEM: ATOMS id type xs ys zs fx fy fz
1 1 0.609035 1.01732 0.138761 0 -0.00221133 0.00425673
2 1 0.359035 0.149349 0.138761 0 0.00221038 0.00425625
3 1 0.306379 1.00051 0.279819 0 -0.0048033 0.000365376
4 1 0.0563787 0.166153 0.279819 0 0.00480306 0.000365019
5 1 0.00335598 -0.00202244 0.42002 0 0.00149417 0.00344014
6 1 0.109035 1.01732 0.138761 0 -0.0022105 0.00425661
7 1 0.010515 0.544909 0.0685859 0 0.00350904 0.00261426
8 1 0.859035 0.149349 0.138761 0 0.00221074 0.00425673
9 1 0.760515 0.621758 0.0685859 0 -0.00350833 0.00261438
10 1 0.806379 1.00051 0.279819 0 -0.00480354 0.000365257
11 1 0.753356 0.16869 0.42002 0 -0.00149429 0.00344002
12 1 0.700294 -0.00198972 0.560128 0 -0.0016439 0.0010165
13 1 0.450294 0.168657 0.560128 0 0.00164437 0.00101578
14 1 0.397187 -0.00138179 0.700131 0 0.000446796 0.00202024
15 1 0.147187 0.168049 0.700131 0 -0.000446439 0.00202012
16 1 0.0942953 1.00425 0.840638 0 -0.000108123 0.00637269
17 1 0.707932 0.504252 0.209815 0 -0.000108004 -0.00637281
18 1 0.556379 0.166153 0.279819 0 0.00480378 0.000365019
19 1 0.457932 0.662415 0.209815 0 0.000108242 -0.00637269
20 1 0.503356 -0.00202246 0.42002 0 0.00149477 0.00344002
21 1 0.40504 0.498618 0.350322 0 0.000446558 -0.00202012
22 1 0.253356 0.16869 0.42002 0 -0.00149429 0.00344014
23 1 0.15504 0.668049 0.350322 0 -0.000446558 -0.00202084
24 1 0.200294 -0.0019897 0.560128 0 -0.00164425 0.00101638
25 1 0.101933 0.49801 0.490325 0 -0.00164402 -0.00101531
26 1 0.950294 0.168657 0.560128 0 0.00164521 0.00101566
27 1 0.851933 0.668657 0.490325 0 0.00164425 -0.00101602
28 1 0.510515 0.544909 0.0685859 0 0.00350988 0.0026145
29 1 0.260515 0.621758 0.0685859 0 -0.00350797 0.00261343
30 1 0.207932 0.504252 0.209815 0 -0.000107527 -0.00637257
31 1 0.957932 0.662415 0.209815 0 0.000108123 -0.00637305
32 1 0.90504 0.498618 0.350322 0 0.000446916 -0.00202012
33 1 0.844295 0.162415 0.840638 0 0.000107646 0.00637269
34 1 0.791712 1.04491 0.981867 0 0.00350821 -0.00261426
35 1 0.541712 0.121758 0.981867 0 -0.00350928 -0.00261462
36 1 0.897187 -0.00138184 0.700131 0 0.000447273 0.0020206
37 1 0.798871 0.497978 0.630433 0 0.00149381 -0.00344026
38 1 0.647187 0.168049 0.700131 0 -0.00044775 0.00202
39 1 0.548871 0.66869 0.630433 0 -0.00149441 -0.00344026
40 1 0.594295 1.00425 0.840638 0 -0.000107884 0.00637257
41 1 0.495848 0.500514 0.770634 0 -0.0048033 -0.0003649
42 1 0.344295 0.162415 0.840638 0 0.000107765 0.00637269
43 1 0.245848 0.666153 0.770634 0 0.00480318 -0.000365615
44 1 0.291712 1.04491 0.981867 0 0.00350749 -0.00261331
45 1 0.193192 0.517318 0.911692 0 -0.00221014 -0.00425649
46 1 0.65504 0.668049 0.350322 0 -0.000447154 -0.00202107
47 1 0.601933 0.49801 0.490325 0 -0.00164449 -0.00101531
48 1 0.351933 0.668657 0.490325 0 0.0016439 -0.00101602
49 1 0.298871 0.497978 0.630433 0 0.00149441 -0.00344014
50 1 0.0488711 0.66869 0.630433 0 -0.00149536 -0.0034405
51 1 0.995848 0.500514 0.770634 0 -0.00480342 -0.000365019
52 1 0.0417121 0.121758 0.981867 0 -0.0035094 -0.00261426
53 1 0.943192 0.649349 0.911692 0 0.00221074 -0.00425625
54 1 0.745848 0.666153 0.770634 0 0.00480402 -0.000365019
55 1 0.693192 0.517318 0.911692 0 -0.00221086 -0.00425649
56 1 0.443192 0.649349 0.911692 0 0.00221109 -0.00425649
ITEM: TIMESTEP
7
ITEM: NUMBER OF ATOMS
56
ITEM: BOX BOUNDS xy xz yz pp pp pp
-5.2624731063842773e+00 1.2206987559795380e+01 -4.7683715820312500e-07
-7.5370073318481445e-03 5.5339480042457581e+00 -5.2405849099159241e+00
-3.2569408416748047e-02 1.9052529454231262e+01 2.8610229492187500e-06
ITEM: ATOMS id type xs ys zs fx fy fz
1 1 0.609083 1.01704 0.138874 0 0.00209427 -0.000339389
2 1 0.359083 0.149631 0.138874 0 -0.00209343 -0.000339627
3 1 0.3064 1.00035 0.27987 0 -0.00286388 0.000483871
4 1 0.0564004 0.166315 0.27987 0 0.00286424 0.000484109
5 1 0.00338607 -0.00201628 0.42009 0 0.00107956 0.00101185
6 1 0.109083 1.01704 0.138874 0 0.00209391 -0.000339746
7 1 0.0105175 0.545166 0.0685919 0 -0.00138628 -0.00474167
8 1 0.859083 0.149631 0.138874 0 -0.00209403 -0.000339627
9 1 0.760518 0.621501 0.0685919 0 0.00138533 -0.00474203
10 1 0.8064 1.00035 0.27987 0 -0.00286388 0.000484228
11 1 0.753386 0.168683 0.42009 0 -0.0010798 0.00101137
12 1 0.700316 -0.00217953 0.560178 0 0.000386477 0.00022912
13 1 0.450316 0.168847 0.560178 0 -0.000386238 0.000229359
14 1 0.397208 -0.00130713 0.70018 0 -0.00101256 0.00153053
15 1 0.147208 0.167974 0.70018 0 0.00101233 0.00153053
16 1 0.094342 1.00419 0.840747 0 -0.000536084 0.000509381
17 1 0.707885 0.504188 0.209706 0 -0.000536203 -0.000509501
18 1 0.5564 0.166315 0.27987 0 0.00286436 0.000484228
19 1 0.457885 0.662479 0.209706 0 0.000535965 -0.000509381
20 1 0.503386 -0.00201627 0.42009 0 0.0010792 0.00101149
21 1 0.405019 0.498693 0.350273 0 -0.00101209 -0.00153029
22 1 0.253386 0.168683 0.42009 0 -0.0010798 0.00101149
23 1 0.155019 0.667974 0.350273 0 0.00101221 -0.00153029
24 1 0.200316 -0.00217952 0.560178 0 0.000386357 0.000228882
25 1 0.101911 0.49782 0.490275 0 0.000386238 -0.000229478
26 1 0.950316 0.168847 0.560178 0 -0.000386477 0.000228643
27 1 0.851911 0.668847 0.490275 0 -0.000386238 -0.000228763
28 1 0.510518 0.545166 0.0685919 0 -0.00138652 -0.0047425
29 1 0.260518 0.621501 0.0685919 0 0.00138509 -0.00474048
30 1 0.207885 0.504188 0.209706 0 -0.000535965 -0.000509858
31 1 0.957885 0.662479 0.209706 0 0.000536323 -0.00050962
32 1 0.905019 0.498693 0.350273 0 -0.00101233 -0.00153041
33 1 0.844342 0.162479 0.840747 0 0.000536561 0.000509381
34 1 0.79171 1.04517 0.981861 0 -0.00138521 0.00474191
35 1 0.54171 0.121501 0.981861 0 0.00138664 0.00474215
36 1 0.897208 -0.00130714 0.70018 0 -0.00101233 0.00153053
37 1 0.798841 0.497984 0.630363 0 0.00107932 -0.00101125
38 1 0.647208 0.167974 0.70018 0 0.00101268 0.00153065
39 1 0.548841 0.668683 0.630363 0 -0.0010798 -0.00101125
40 1 0.594342 1.00419 0.840747 0 -0.000536799 0.000509977
41 1 0.495827 0.500352 0.770583 0 -0.00286424 -0.000485063
42 1 0.344342 0.162479 0.840747 0 0.000536561 0.000509501
43 1 0.245827 0.666315 0.770583 0 0.002864 -0.000483871
44 1 0.29171 1.04517 0.981861 0 -0.00138497 0.00474083
45 1 0.193144 0.517036 0.911579 0 0.00209308 0.000340223
46 1 0.655019 0.667974 0.350273 0 0.00101233 -0.00153041
47 1 0.601911 0.49782 0.490275 0 0.000386477 -0.000229597
48 1 0.351911 0.668847 0.490275 0 -0.000386238 -0.00022912
49 1 0.298841 0.497984 0.630363 0 0.00107956 -0.00101125
50 1 0.048841 0.668683 0.630363 0 -0.00107944 -0.00101161
51 1 0.995827 0.500352 0.770583 0 -0.00286424 -0.000484705
52 1 0.0417096 0.121501 0.981861 0 0.00138593 0.00474155
53 1 0.943144 0.649631 0.911579 0 -0.00209391 0.000339746
54 1 0.745827 0.666315 0.770583 0 0.002864 -0.000484586
55 1 0.693144 0.517036 0.911579 0 0.00209403 0.000340104
56 1 0.443144 0.649631 0.911579 0 -0.00209403 0.000339746
ITEM: TIMESTEP
8
ITEM: NUMBER OF ATOMS
56
ITEM: BOX BOUNDS xy xz yz pp pp pp
-5.2624731063842773e+00 1.2206987559795380e+01 -4.7683715820312500e-07
-7.5370073318481445e-03 5.5339480042457581e+00 -5.2405849099159241e+00
-3.2569408416748047e-02 1.9052529454231262e+01 2.8610229492187500e-06
ITEM: ATOMS id type xs ys zs fx fy fz
1 1 0.609097 1.01708 0.138905 0 0.000199914 -0.000315905
2 1 0.359097 0.14959 0.138905 0 -0.000200272 -0.000315785
3 1 0.306412 1.00011 0.279896 0 9.48906e-05 6.07967e-05
4 1 0.0564115 0.166554 0.279896 0 -9.46522e-05 6.16312e-05
5 1 0.00340424 -0.00194436 0.420132 0 -0.000237942 -0.000792146
6 1 0.109097 1.01708 0.138905 0 0.000199795 -0.000315666
7 1 0.0104802 0.545162 0.0685048 0 0.00146723 -0.000204682
8 1 0.859097 0.14959 0.138905 0 -0.000199795 -0.000315905
9 1 0.76048 0.621505 0.0685048 0 -0.00146711 -0.000203967
10 1 0.806412 1.00011 0.279896 0 9.46522e-05 6.06775e-05
11 1 0.753404 0.168611 0.420132 0 0.000237823 -0.000791669
12 1 0.700325 -0.00221776 0.560199 0 0.00109255 0.000643134
13 1 0.450325 0.168885 0.560199 0 -0.00109267 0.000642776
14 1 0.397228 -0.00134779 0.700225 0 -0.000930786 2.95639e-05
15 1 0.147228 0.168015 0.700225 0 0.000930548 2.92063e-05
16 1 0.0943617 1.00413 0.840793 0 -3.48091e-05 0.00046277
17 1 0.707865 0.504133 0.20966 0 -3.49283e-05 -0.00046289
18 1 0.556412 0.166555 0.279896 0 -9.47714e-05 6.12736e-05
19 1 0.457865 0.662535 0.20966 0 3.48091e-05 -0.000462532
20 1 0.503404 -0.00194436 0.420132 0 -0.000237703 -0.000791788
21 1 0.404999 0.498652 0.350228 0 -0.000930786 -2.95639e-05
22 1 0.253404 0.168611 0.420132 0 0.00023818 -0.000791788
23 1 0.154999 0.668015 0.350228 0 0.000931025 -2.96831e-05
24 1 0.200325 -0.00221776 0.560199 0 0.00109279 0.000642896
25 1 0.101902 0.497782 0.490254 0 0.00109291 -0.000643015
26 1 0.950325 0.168885 0.560199 0 -0.00109351 0.000643253
27 1 0.851902 0.668885 0.490254 0 -0.00109267 -0.000643134
28 1 0.51048 0.545162 0.0685048 0 0.00146747 -0.000204086
29 1 0.26048 0.621505 0.0685048 0 -0.00146687 -0.000204563
30 1 0.207865 0.504133 0.20966 0 -3.50475e-05 -0.000462294
31 1 0.957865 0.662535 0.20966 0 3.44515e-05 -0.000462413
32 1 0.904999 0.498652 0.350228 0 -0.000930548 -2.98023e-05
33 1 0.844362 0.162535 0.840793 0 3.45707e-05 0.000462651
34 1 0.791747 1.04516 0.981948 0 0.00146735 0.000203967